 argument  1 = caffeine.nw
  NWChem w/ OpenMP: maximum threads =    1



============================== echo of input deck ==============================

start caffeine

echo
memory stack 1000 mb heap 100 mb global 8000 mb noverify

geometry units au
symmetry c1
H -2.56844271140696 2.6223282057988957 -0.6824886654803207
N -1.2713939613354759 -1.0944449903712032 0.013656799979650308
C 0.8252067608259046 0.05160171602104182 -0.0667250490775411
N -1.1591671902255938 1.2969194668121147 0.0851804771024143
C 0.23595237337498998 1.3426180260459684 0.008362881602143817
C -1.9448587032734757 0.12507818491670597 0.09114625146835935
C 0.10020160085450462 -1.1011504288407 -0.06354637437477963
N 2.126953215940903 -0.35111108224689025 -0.15289546056200093
O -3.1759709519690817 0.18746041114437595 0.16227998834009327
C -1.8805164911990553 2.5518698795245123 0.16651028313049213
O 0.8986762940669188 2.3757240014655188 0.004787350100643291
H 3.026864937437135 -2.310425513032107 -0.26716753213767763
C -2.0058222741700256 -2.3463670931767733 0.014138966599583308
H -2.46894964660055 2.564654699522161 1.0898677836023343
H -1.216962994139419 3.4200309279399597 0.157511489152406
H -3.08512756357102 -2.1861666163120064 0.07992351655857322
H -1.7890247354681545 -2.888204047457126 -0.9119429131717541
H -1.68884483693743 -2.946285254384215 0.8731148219304722
C 3.2911340312935486 0.4969933820051836 -0.19064083404467072
C 2.12159330448944 -1.720305733853845 -0.1971521352518601
N 0.8961397814044519 -2.203658247595706 -0.14409967370262136
H 3.321515448400178 1.0875953036573287 0.7283354704074236
H 3.2207435496267944 1.1460187111300126 -1.0670324816377121
H 4.190100762581485 -0.1207739087133787 -0.26120189505210023
end

basis
* library sto-3g
end



scf
thresh 1.0e-08
tol2e 1e-09
singlet
rhf
maxiter 200

end

tce
ccsd
2eorb
2emet 13
tilesize 10

thresh 1.0e-08
end

set tce:print_integrals T
set tce:qorb 80
set tce:qela 51
set tce:qelb 51

task tce energy
================================================================================


                                         
                                         


              Northwest Computational Chemistry Package (NWChem) 6.8
              ------------------------------------------------------


                    Environmental Molecular Sciences Laboratory
                       Pacific Northwest National Laboratory
                                Richland, WA 99352

                              Copyright (c) 1994-2018
                       Pacific Northwest National Laboratory
                            Battelle Memorial Institute

             NWChem is an open-source computational chemistry package
                        distributed under the terms of the
                      Educational Community License (ECL) 2.0
             A copy of the license is included with this distribution
                              in the LICENSE.TXT file

                                  ACKNOWLEDGMENT
                                  --------------

            This software and its documentation were developed at the
            EMSL at Pacific Northwest National Laboratory, a multiprogram
            national laboratory, operated for the U.S. Department of Energy
            by Battelle under Contract Number DE-AC05-76RL01830. Support
            for this work was provided by the Department of Energy Office
            of Biological and Environmental Research, Office of Basic
            Energy Sciences, and the Office of Advanced Scientific Computing.


           Job information
           ---------------

    hostname        = 536cff56affc
    program         = /opt/nwchem/bin/LINUX64/nwchem
    date            = Mon Dec 14 20:59:41 2020

    compiled        = Mon_Oct_22_17:31:00_2018
    source          = /opt/nwchem
    nwchem branch   = Development
    nwchem revision = nwchem_on_git-667-gfb4151614
    ga revision     = 5.6.5
    use scalapack   = F
    input           = caffeine.nw
    prefix          = caffeine.
    data base       = ./caffeine.db
    status          = startup
    nproc           =        1
    time left       =     -1s



           Memory information
           ------------------

    heap     =   13107194 doubles =    100.0 Mbytes
    stack    =  131071999 doubles =   1000.0 Mbytes
    global   = 1048576000 doubles =   8000.0 Mbytes (distinct from heap & stack)
    total    = 1192755193 doubles =   9100.0 Mbytes
    verify   = no 
    hardfail = no 


           Directory information
           ---------------------

  0 permanent = .
  0 scratch   = .




                                NWChem Input Module
                                -------------------


 Turning off AUTOSYM since
 SYMMETRY directive was detected!


          ------
          auto-z
          ------
      warning. autoz generated   11 bonds for atom    2
      warning. autoz generated   10 bonds for atom    3
      warning. autoz generated   11 bonds for atom    4
      warning. autoz generated   10 bonds for atom    5
      warning. autoz generated    9 bonds for atom    6
      warning. autoz generated    9 bonds for atom    7
      warning. autoz generated   11 bonds for atom    8
      warning. autoz generated    8 bonds for atom   10
      warning. autoz generated    7 bonds for atom   11
      warning. autoz generated    8 bonds for atom   13
      warning. autoz generated    8 bonds for atom   19
      warning. autoz generated    7 bonds for atom   20
      warning. autoz generated    7 bonds for atom   21
  autoz: too many torsions 
     1 autoz failed with cvr_scaling = 1.2 changing to 1.3
      warning. autoz generated   13 bonds for atom    2
      warning. autoz generated   14 bonds for atom    3
      warning. autoz generated   11 bonds for atom    4
      warning. autoz generated   12 bonds for atom    5
      warning. autoz generated   11 bonds for atom    6
      warning. autoz generated   12 bonds for atom    7
      warning. autoz generated   12 bonds for atom    8
      warning. autoz generated    9 bonds for atom   10
      warning. autoz generated    7 bonds for atom   11
      warning. autoz generated    9 bonds for atom   13
      warning. autoz generated   11 bonds for atom   19
      warning. autoz generated    9 bonds for atom   20
      warning. autoz generated    9 bonds for atom   21
  autoz: too many torsions 
     2 autoz failed with cvr_scaling = 1.3 changing to 1.4
      warning. autoz generated   14 bonds for atom    2
      warning. autoz generated   14 bonds for atom    3
      warning. autoz generated   13 bonds for atom    4
      warning. autoz generated   13 bonds for atom    5
      warning. autoz generated   13 bonds for atom    6
      warning. autoz generated   14 bonds for atom    7
      warning. autoz generated   13 bonds for atom    8
      warning. autoz generated   10 bonds for atom    9
      warning. autoz generated   10 bonds for atom   10
      warning. autoz generated    9 bonds for atom   11
      warning. autoz generated   10 bonds for atom   13
      warning. autoz generated   11 bonds for atom   19
      warning. autoz generated    9 bonds for atom   20
      warning. autoz generated   12 bonds for atom   21
  autoz: too many torsions 
     3 autoz failed with cvr_scaling = 1.4 changing to 1.5
      warning. autoz generated    7 bonds for atom    1
      warning. autoz generated   14 bonds for atom    2
      warning. autoz generated   16 bonds for atom    3
      warning. autoz generated   13 bonds for atom    4
      warning. autoz generated   17 bonds for atom    5
      warning. autoz generated   16 bonds for atom    6
      warning. autoz generated   16 bonds for atom    7
      warning. autoz generated   14 bonds for atom    8
      warning. autoz generated   11 bonds for atom    9
      warning. autoz generated   11 bonds for atom   10
      warning. autoz generated   11 bonds for atom   11
      warning. autoz generated   11 bonds for atom   13
      warning. autoz generated    7 bonds for atom   14
      warning. autoz generated    7 bonds for atom   17
      warning. autoz generated    7 bonds for atom   18
      warning. autoz generated   11 bonds for atom   19
      warning. autoz generated   12 bonds for atom   20
      warning. autoz generated   12 bonds for atom   21
      warning. autoz generated    8 bonds for atom   22
      warning. autoz generated    8 bonds for atom   23
  autoz: too many torsions 
     4 autoz failed with cvr_scaling = 1.5 changing to 1.6
      warning. autoz generated    7 bonds for atom    1
      warning. autoz generated   15 bonds for atom    2
      warning. autoz generated   17 bonds for atom    3
      warning. autoz generated   14 bonds for atom    4
      warning. autoz generated   18 bonds for atom    5
      warning. autoz generated   18 bonds for atom    6
      warning. autoz generated   17 bonds for atom    7
      warning. autoz generated   14 bonds for atom    8
      warning. autoz generated   11 bonds for atom    9
      warning. autoz generated   11 bonds for atom   10
      warning. autoz generated   13 bonds for atom   11
      warning. autoz generated   12 bonds for atom   13
      warning. autoz generated    7 bonds for atom   14
      warning. autoz generated    7 bonds for atom   15
      warning. autoz generated    7 bonds for atom   16
      warning. autoz generated    7 bonds for atom   17
      warning. autoz generated    7 bonds for atom   18
      warning. autoz generated   11 bonds for atom   19
      warning. autoz generated   14 bonds for atom   20
      warning. autoz generated   13 bonds for atom   21
      warning. autoz generated    8 bonds for atom   22
      warning. autoz generated    8 bonds for atom   23
  autoz: too many torsions 
     5 autoz failed with cvr_scaling = 1.6 changing to 1.7
      warning. autoz generated    7 bonds for atom    1
      warning. autoz generated   15 bonds for atom    2
      warning. autoz generated   17 bonds for atom    3
      warning. autoz generated   16 bonds for atom    4
      warning. autoz generated   18 bonds for atom    5
      warning. autoz generated   18 bonds for atom    6
      warning. autoz generated   17 bonds for atom    7
      warning. autoz generated   15 bonds for atom    8
      warning. autoz generated   11 bonds for atom    9
      warning. autoz generated   11 bonds for atom   10
      warning. autoz generated   13 bonds for atom   11
      warning. autoz generated    7 bonds for atom   12
      warning. autoz generated   13 bonds for atom   13
      warning. autoz generated    7 bonds for atom   14
      warning. autoz generated    7 bonds for atom   15
      warning. autoz generated    7 bonds for atom   16
      warning. autoz generated    7 bonds for atom   17
      warning. autoz generated    7 bonds for atom   18
      warning. autoz generated   12 bonds for atom   19
      warning. autoz generated   15 bonds for atom   20
      warning. autoz generated   13 bonds for atom   21
      warning. autoz generated    8 bonds for atom   22
      warning. autoz generated    8 bonds for atom   23
      warning. autoz generated    7 bonds for atom   24
  autoz: too many torsions 

 AUTOZ failed to generate good internal coordinates.
 Cartesian coordinates will be used in optimizations.



                             Geometry "geometry" -> ""
                             -------------------------

 Output coordinates in a.u. (scale by  1.000000000 to convert to a.u.)

  No.       Tag          Charge          X              Y              Z
 ---- ---------------- ---------- -------------- -------------- --------------
    1 H                    1.0000    -2.48342880     2.61418888    -0.66543883
    2 N                    7.0000    -1.18638005    -1.10258432     0.03070663
    3 C                    6.0000     0.91022067     0.04346239    -0.04967522
    4 N                    7.0000    -1.07415328     1.28878014     0.10223031
    5 C                    6.0000     0.32096628     1.33447870     0.02541271
    6 C                    6.0000    -1.85984480     0.11693886     0.10819608
    7 C                    6.0000     0.18521551    -1.10928976    -0.04649654
    8 N                    7.0000     2.21196712    -0.35925041    -0.13584563
    9 O                    8.0000    -3.09095704     0.17932108     0.17932982
   10 C                    6.0000    -1.79550258     2.54373055     0.18356011
   11 O                    8.0000     0.98369020     2.36758467     0.02183718
   12 H                    1.0000     3.11187884    -2.31856484    -0.25011770
   13 C                    6.0000    -1.92080837    -2.35450642     0.03118880
   14 H                    1.0000    -2.38393574     2.55651537     1.10691761
   15 H                    1.0000    -1.13194909     3.41189160     0.17456132
   16 H                    1.0000    -3.00011366    -2.19430594     0.09697335
   17 H                    1.0000    -1.70401083    -2.89634338    -0.89489308
   18 H                    1.0000    -1.60383093    -2.95442458     0.89016465
   19 C                    6.0000     3.37614794     0.48885405    -0.17359100
   20 C                    6.0000     2.20660721    -1.72844506    -0.18010230
   21 N                    7.0000     0.98115369    -2.21179758    -0.12704984
   22 H                    1.0000     3.40652936     1.07945598     0.74538530
   23 H                    1.0000     3.30575746     1.13787938    -1.04998265
   24 H                    1.0000     4.27511467    -0.12891324    -0.24415206

      Atomic Mass 
      ----------- 

      H                  1.007825
      N                 14.003070
      C                 12.000000
      O                 15.994910


 Effective nuclear repulsion energy (a.u.)    1759.8855756988

            Nuclear Dipole moment (a.u.) 
            ----------------------------
        X                 Y               Z
 ---------------- ---------------- ----------------
    -0.0000000000    -0.0000000000    -0.0000000000


            XYZ format geometry
            -------------------
    24
 geometry
 H                    -1.31417402     1.38336928    -0.35213509
 N                    -0.62780533    -0.58346254     0.01624925
 C                     0.48166807     0.02299931    -0.02628700
 N                    -0.56841748     0.68199313     0.05409795
 C                     0.16984805     0.70617577     0.01344783
 C                    -0.98418755     0.06188138     0.05725491
 C                     0.09801183    -0.58701090    -0.02460491
 N                     1.17052268    -0.19010714    -0.07188642
 O                    -1.63566415     0.09489264     0.09489726
 C                    -0.95013912     1.34608434     0.09713584
 O                     0.52054647     1.25287194     0.01155574
 H                     1.64673549    -1.22693176    -0.13235660
 C                    -1.01644809    -1.24595123     0.01650440
 H                    -1.26152456     1.35284977     0.58575562
 H                    -0.59900170     1.80549541     0.09237388
 H                    -1.58759189    -1.16117678     0.05131609
 H                    -0.90172376    -1.53267902    -0.47355706
 H                    -0.84871084    -1.56341427     0.47105488
 C                     1.78658068     0.25869044    -0.09186041
 C                     1.16768633    -0.91465380    -0.09530604
 N                     0.51920421    -1.17043296    -0.06723189
 H                     1.80265783     0.57122354     0.39444094
 H                     1.74933164     0.60213988    -0.55562693
 H                     2.26229342    -0.06821795    -0.12919972

 ==============================================================================
                                internuclear distances
 ------------------------------------------------------------------------------
       center one      |      center two      | atomic units |       a.u.
 ------------------------------------------------------------------------------
    3 C                |   2 N                |     2.39074  |     2.39074
    4 N                |   1 H                |     2.08137  |     2.08137
    4 N                |   2 N                |     2.39506  |     2.39506
    4 N                |   3 C                |     2.34769  |     2.34769
    5 C                |   2 N                |     2.86555  |     2.86555
    5 C                |   3 C                |     1.42112  |     1.42112
    5 C                |   4 N                |     1.39798  |     1.39798
    6 C                |   2 N                |     1.39528  |     1.39528
    6 C                |   3 C                |     2.77553  |     2.77553
    6 C                |   4 N                |     1.41087  |     1.41087
    6 C                |   5 C                |     2.49904  |     2.49904
    7 C                |   2 N                |     1.37378  |     1.37378
    7 C                |   3 C                |     1.36179  |     1.36179
    7 C                |   4 N                |     2.71272  |     2.71272
    7 C                |   5 C                |     2.44859  |     2.44859
    7 C                |   6 C                |     2.38953  |     2.38953
    8 N                |   3 C                |     1.36534  |     1.36534
    8 N                |   5 C                |     2.54374  |     2.54374
    8 N                |   7 C                |     2.16293  |     2.16293
    9 O                |   2 N                |     2.30061  |     2.30061
    9 O                |   4 N                |     2.30312  |     2.30312
    9 O                |   6 C                |     1.23474  |     1.23474
   10 C                |   1 H                |     1.09499  |     1.09499
   10 C                |   4 N                |     1.44978  |     1.44978
   10 C                |   5 C                |     2.44269  |     2.44269
   10 C                |   6 C                |     2.42881  |     2.42881
   10 C                |   9 O                |     2.69604  |     2.69604
   11 O                |   3 C                |     2.32638  |     2.32638
   11 O                |   4 N                |     2.32487  |     2.32487
   11 O                |   5 C                |     1.22741  |     1.22741
   11 O                |  10 C                |     2.78946  |     2.78946
   13 C                |   2 N                |     1.45145  |     1.45145
   13 C                |   6 C                |     2.47340  |     2.47340
   13 C                |   7 C                |     2.44784  |     2.44784
   13 C                |   9 O                |     2.79490  |     2.79490
   14 H                |   4 N                |     2.08136  |     2.08136
   14 H                |  10 C                |     1.09499  |     1.09499
   15 H                |  10 C                |     1.09274  |     1.09274
   16 H                |   2 N                |     2.11799  |     2.11799
   16 H                |  13 C                |     1.09311  |     1.09311
   17 H                |   2 N                |     2.08381  |     2.08381
   17 H                |  13 C                |     1.09463  |     1.09463
   18 H                |   2 N                |     2.08381  |     2.08381
   18 H                |  13 C                |     1.09463  |     1.09463
   19 C                |   3 C                |     2.50889  |     2.50889
   19 C                |   8 N                |     1.44084  |     1.44084
   20 C                |   3 C                |     2.19938  |     2.19938
   20 C                |   7 C                |     2.11831  |     2.11831
   20 C                |   8 N                |     1.36992  |     1.36992
   20 C                |  12 H                |     1.08289  |     1.08289
   20 C                |  19 C                |     2.50685  |     2.50685
   21 N                |   2 N                |     2.43997  |     2.43997
   21 N                |   3 C                |     2.25770  |     2.25770
   21 N                |   7 C                |     1.36218  |     1.36218
   21 N                |   8 N                |     2.22417  |     2.22417
   21 N                |  13 C                |     2.90977  |     2.90977
   21 N                |  20 C                |     1.31840  |     1.31840
   22 H                |   8 N                |     2.06723  |     2.06723
   22 H                |  19 C                |     1.09282  |     1.09282
   23 H                |   8 N                |     2.06723  |     2.06723
   23 H                |  19 C                |     1.09282  |     1.09282
   24 H                |   8 N                |     2.07879  |     2.07879
   24 H                |  19 C                |     1.09305  |     1.09305
 ------------------------------------------------------------------------------
                         number of included internuclear distances:         63
 ==============================================================================



 ==============================================================================
                                 internuclear angles
 ------------------------------------------------------------------------------
        center 1       |       center 2       |       center 3       |  degrees
 ------------------------------------------------------------------------------
    1 H                |  10 C                |   4 N                |   108.95
    2 N                |   3 C                |   4 N                |    60.72
    2 N                |   3 C                |   5 C                |    94.02
    3 C                |   2 N                |   6 C                |    90.35
    2 N                |   7 C                |   3 C                |   121.84
    3 C                |   2 N                |   9 O                |   117.46
    3 C                |   2 N                |  13 C                |   149.01
    3 C                |   2 N                |  16 H                |   177.61
    3 C                |   2 N                |  17 H                |   127.99
    3 C                |   2 N                |  18 H                |   127.99
    2 N                |   3 C                |  21 N                |    63.25
    2 N                |   4 N                |   5 C                |    94.46
    2 N                |   6 C                |   4 N                |   117.19
    4 N                |   2 N                |   7 C                |    87.69
    2 N                |   9 O                |   4 N                |    62.70
    4 N                |   2 N                |  13 C                |   152.24
    4 N                |   2 N                |  16 H                |   123.63
    4 N                |   2 N                |  17 H                |   152.18
    4 N                |   2 N                |  18 H                |   152.18
    4 N                |   2 N                |  21 N                |   114.47
    2 N                |   6 C                |   5 C                |    90.16
    2 N                |   7 C                |   5 C                |    92.80
    5 C                |   2 N                |   9 O                |    87.81
    5 C                |   2 N                |  13 C                |   178.66
    5 C                |   2 N                |  16 H                |   152.73
    5 C                |   2 N                |  17 H                |   149.53
    5 C                |   2 N                |  18 H                |   149.53
    5 C                |   2 N                |  21 N                |    85.37
    6 C                |   2 N                |   7 C                |   119.29
    2 N                |   6 C                |   9 O                |   121.91
    6 C                |   2 N                |  13 C                |   120.64
    6 C                |   2 N                |  16 H                |    92.03
    6 C                |   2 N                |  17 H                |   131.08
    6 C                |   2 N                |  18 H                |   131.08
    6 C                |   2 N                |  21 N                |   146.07
    7 C                |   2 N                |   9 O                |   146.40
    7 C                |   2 N                |  13 C                |   120.07
    7 C                |   2 N                |  16 H                |   148.67
    7 C                |   2 N                |  17 H                |   102.64
    7 C                |   2 N                |  18 H                |   102.64
    2 N                |   7 C                |  21 N                |   126.20
    9 O                |   2 N                |  13 C                |    93.54
    9 O                |   2 N                |  16 H                |    64.93
    9 O                |   2 N                |  17 H                |   107.62
    9 O                |   2 N                |  18 H                |   107.62
    9 O                |   2 N                |  21 N                |   173.17
    2 N                |  13 C                |  16 H                |   111.91
    2 N                |  13 C                |  17 H                |   109.05
    2 N                |  13 C                |  18 H                |   109.05
   13 C                |   2 N                |  21 N                |    93.29
   16 H                |   2 N                |  17 H                |    50.02
   16 H                |   2 N                |  18 H                |    50.02
   16 H                |   2 N                |  21 N                |   121.90
   17 H                |   2 N                |  18 H                |    50.84
   17 H                |   2 N                |  21 N                |    78.50
   18 H                |   2 N                |  21 N                |    78.50
    2 N                |   3 C                |   4 N                |    60.72
    2 N                |   3 C                |   5 C                |    94.02
    3 C                |   2 N                |   6 C                |    90.35
    3 C                |   7 C                |   2 N                |   121.84
    2 N                |   3 C                |   8 N                |   134.18
    2 N                |   3 C                |  11 O                |   120.37
    2 N                |   3 C                |  19 C                |   161.57
    2 N                |   3 C                |  20 C                |    97.63
    2 N                |   3 C                |  21 N                |    63.25
    3 C                |   5 C                |   4 N                |   112.77
    3 C                |   4 N                |   6 C                |    91.74
    4 N                |   3 C                |   7 C                |    89.94
    4 N                |   3 C                |   8 N                |   165.11
    3 C                |  11 O                |   4 N                |    60.63
    4 N                |   3 C                |  19 C                |   137.71
    4 N                |   3 C                |  20 C                |   158.34
    4 N                |   3 C                |  21 N                |   123.96
    3 C                |   5 C                |   6 C                |    85.47
    5 C                |   3 C                |   7 C                |   123.24
    5 C                |   3 C                |   8 N                |   131.81
    3 C                |   5 C                |  11 O                |   122.72
    5 C                |   3 C                |  19 C                |   104.41
    5 C                |   3 C                |  20 C                |   168.36
    5 C                |   3 C                |  21 N                |   157.27
    3 C                |   7 C                |   6 C                |    91.23
    6 C                |   3 C                |   8 N                |   164.35
    6 C                |   3 C                |  11 O                |    90.19
    6 C                |   3 C                |  19 C                |   168.25
    6 C                |   3 C                |  20 C                |   127.80
    6 C                |   3 C                |  21 N                |    93.43
    7 C                |   3 C                |   8 N                |   104.96
    7 C                |   3 C                |  11 O                |   149.59
    7 C                |   3 C                |  19 C                |   132.35
    3 C                |   7 C                |  20 C                |    74.88
    3 C                |   7 C                |  21 N                |   111.96
    8 N                |   3 C                |  11 O                |   105.46
    3 C                |   8 N                |  19 C                |   126.75
    3 C                |   8 N                |  20 C                |   107.04
    3 C                |   8 N                |  21 N                |    73.61
   11 O                |   3 C                |  19 C                |    78.06
   11 O                |   3 C                |  20 C                |   142.00
   11 O                |   3 C                |  21 N                |   176.38
    3 C                |  20 C                |  19 C                |    64.04
   19 C                |   3 C                |  21 N                |    98.32
    3 C                |  20 C                |  21 N                |    75.23
    1 H                |   4 N                |   2 N                |   126.38
    1 H                |   4 N                |   3 C                |   152.40
    1 H                |   4 N                |   5 C                |   129.39
    1 H                |   4 N                |   6 C                |    98.82
    1 H                |   4 N                |   7 C                |   148.99
    1 H                |   4 N                |   9 O                |    74.11
    4 N                |  10 C                |   1 H                |   108.95
    1 H                |   4 N                |  11 O                |   106.92
    1 H                |   4 N                |  14 H                |    50.51
    4 N                |   3 C                |   2 N                |    60.72
    2 N                |   4 N                |   5 C                |    94.46
    4 N                |   6 C                |   2 N                |   117.19
    4 N                |   2 N                |   7 C                |    87.69
    4 N                |   9 O                |   2 N                |    62.70
    2 N                |   4 N                |  10 C                |   147.42
    2 N                |   4 N                |  11 O                |   120.25
    2 N                |   4 N                |  14 H                |   126.38
    4 N                |   5 C                |   3 C                |   112.77
    3 C                |   4 N                |   6 C                |    91.74
    4 N                |   3 C                |   7 C                |    89.94
    3 C                |   4 N                |   9 O                |   119.13
    3 C                |   4 N                |  10 C                |   152.05
    4 N                |  11 O                |   3 C                |    60.63
    3 C                |   4 N                |  14 H                |   152.40
    5 C                |   4 N                |   6 C                |   125.67
    4 N                |   5 C                |   7 C                |    85.05
    5 C                |   4 N                |   9 O                |   153.06
    5 C                |   4 N                |  10 C                |   118.12
    4 N                |   5 C                |  11 O                |   124.51
    5 C                |   4 N                |  14 H                |   129.39
    4 N                |   6 C                |   7 C                |    87.10
    4 N                |   6 C                |   9 O                |   120.90
    6 C                |   4 N                |  10 C                |   116.21
    6 C                |   4 N                |  11 O                |   151.46
    6 C                |   4 N                |  14 H                |    98.82
    7 C                |   4 N                |   9 O                |    89.00
    7 C                |   4 N                |  10 C                |   177.82
    7 C                |   4 N                |  11 O                |    89.85
    7 C                |   4 N                |  14 H                |   148.99
    9 O                |   4 N                |  10 C                |    88.82
    9 O                |   4 N                |  11 O                |   178.85
    9 O                |   4 N                |  14 H                |    74.11
   10 C                |   4 N                |  11 O                |    92.33
    4 N                |  10 C                |  14 H                |   108.95
   11 O                |   4 N                |  14 H                |   106.92
    5 C                |   3 C                |   2 N                |    94.02
    5 C                |   4 N                |   2 N                |    94.46
    5 C                |   6 C                |   2 N                |    90.16
    5 C                |   7 C                |   2 N                |    92.80
    2 N                |   5 C                |   8 N                |    79.91
    2 N                |   5 C                |  10 C                |    88.00
    2 N                |   5 C                |  11 O                |   179.06
    3 C                |   5 C                |   4 N                |   112.77
    3 C                |   5 C                |   6 C                |    85.47
    5 C                |   3 C                |   7 C                |   123.24
    5 C                |   3 C                |   8 N                |   131.81
    3 C                |   5 C                |  10 C                |   144.33
    3 C                |   5 C                |  11 O                |   122.72
    5 C                |   4 N                |   6 C                |   125.67
    4 N                |   5 C                |   7 C                |    85.05
    4 N                |   5 C                |   8 N                |   136.35
    5 C                |   4 N                |  10 C                |   118.12
    4 N                |   5 C                |  11 O                |   124.51
    5 C                |   7 C                |   6 C                |    62.19
    6 C                |   5 C                |   8 N                |   109.05
    5 C                |  10 C                |   6 C                |    61.73
    6 C                |   5 C                |  11 O                |   151.81
    5 C                |   7 C                |   8 N                |    66.62
    7 C                |   5 C                |  10 C                |   116.61
    7 C                |   5 C                |  11 O                |   150.45
    8 N                |   5 C                |  10 C                |   167.92
    8 N                |   5 C                |  11 O                |    99.14
   10 C                |   5 C                |  11 O                |    92.94
    6 C                |   2 N                |   3 C                |    90.35
    2 N                |   6 C                |   4 N                |   117.19
    2 N                |   6 C                |   5 C                |    90.16
    6 C                |   2 N                |   7 C                |   119.29
    2 N                |   6 C                |   9 O                |   121.91
    2 N                |   6 C                |  10 C                |   149.57
    6 C                |   2 N                |  13 C                |   120.64
    6 C                |   4 N                |   3 C                |    91.74
    6 C                |   5 C                |   3 C                |    85.47
    6 C                |   7 C                |   3 C                |    91.23
    3 C                |   6 C                |   9 O                |   178.62
    3 C                |   6 C                |  10 C                |    90.10
    3 C                |   6 C                |  13 C                |    89.79
    6 C                |   4 N                |   5 C                |   125.67
    4 N                |   6 C                |   7 C                |    87.10
    4 N                |   6 C                |   9 O                |   120.90
    6 C                |   4 N                |  10 C                |   116.21
    4 N                |   6 C                |  13 C                |   147.51
    6 C                |   7 C                |   5 C                |    62.19
    5 C                |   6 C                |   9 O                |   147.93
    6 C                |  10 C                |   5 C                |    61.73
    5 C                |   6 C                |  13 C                |   120.48
    7 C                |   6 C                |   9 O                |   152.00
    7 C                |   6 C                |  10 C                |   119.48
    6 C                |   7 C                |  13 C                |    61.49
    9 O                |   6 C                |  10 C                |    88.52
    9 O                |   6 C                |  13 C                |    91.59
   10 C                |   6 C                |  13 C                |   179.89
    2 N                |   7 C                |   3 C                |   121.84
    7 C                |   2 N                |   4 N                |    87.69
    2 N                |   7 C                |   5 C                |    92.80
    7 C                |   2 N                |   6 C                |   119.29
    2 N                |   7 C                |   8 N                |   159.42
    7 C                |   2 N                |  13 C                |   120.07
    2 N                |   7 C                |  20 C                |   163.28
    2 N                |   7 C                |  21 N                |   126.20
    7 C                |   3 C                |   4 N                |    89.94
    7 C                |   3 C                |   5 C                |   123.24
    3 C                |   7 C                |   6 C                |    91.23
    7 C                |   3 C                |   8 N                |   104.96
    3 C                |   7 C                |  13 C                |   152.71
    3 C                |   7 C                |  20 C                |    74.88
    3 C                |   7 C                |  21 N                |   111.96
    7 C                |   5 C                |   4 N                |    85.05
    7 C                |   6 C                |   4 N                |    87.10
    4 N                |   7 C                |   8 N                |    97.51
    4 N                |   7 C                |  13 C                |    92.78
    4 N                |   7 C                |  20 C                |   134.82
    4 N                |   7 C                |  21 N                |   171.89
    5 C                |   7 C                |   6 C                |    62.19
    5 C                |   7 C                |   8 N                |    66.62
    5 C                |   7 C                |  13 C                |   123.67
    5 C                |   7 C                |  20 C                |   103.93
    5 C                |   7 C                |  21 N                |   141.00
    6 C                |   7 C                |   8 N                |   128.81
    6 C                |   7 C                |  13 C                |    61.49
    6 C                |   7 C                |  20 C                |   166.11
    6 C                |   7 C                |  21 N                |   156.82
    8 N                |   7 C                |  13 C                |   169.71
    7 C                |  20 C                |   8 N                |    73.12
    8 N                |   7 C                |  21 N                |    74.38
   13 C                |   7 C                |  20 C                |   132.40
   13 C                |   7 C                |  21 N                |    95.33
    7 C                |  21 N                |  20 C                |   104.40
    8 N                |   3 C                |   5 C                |   131.81
    8 N                |   3 C                |   7 C                |   104.96
    3 C                |   8 N                |  19 C                |   126.75
    3 C                |   8 N                |  20 C                |   107.04
    3 C                |   8 N                |  21 N                |    73.61
    3 C                |   8 N                |  22 H                |   108.59
    3 C                |   8 N                |  23 H                |   108.59
    3 C                |   8 N                |  24 H                |   156.47
    8 N                |   7 C                |   5 C                |    66.62
    5 C                |   8 N                |  19 C                |   102.15
    5 C                |   8 N                |  20 C                |   131.65
    5 C                |   8 N                |  21 N                |    98.22
    5 C                |   8 N                |  22 H                |    86.51
    5 C                |   8 N                |  23 H                |    86.51
    5 C                |   8 N                |  24 H                |   131.86
    7 C                |   8 N                |  19 C                |   164.22
    8 N                |  20 C                |   7 C                |    73.12
    8 N                |   7 C                |  21 N                |    74.38
    7 C                |   8 N                |  22 H                |   139.93
    7 C                |   8 N                |  23 H                |   139.93
    7 C                |   8 N                |  24 H                |   166.06
   19 C                |   8 N                |  20 C                |   126.20
   19 C                |   8 N                |  21 N                |   159.64
    8 N                |  19 C                |  22 H                |   108.57
    8 N                |  19 C                |  23 H                |   108.57
    8 N                |  19 C                |  24 H                |   109.48
    8 N                |  20 C                |  21 N                |   111.64
   20 C                |   8 N                |  22 H                |   135.37
   20 C                |   8 N                |  23 H                |   135.37
   20 C                |   8 N                |  24 H                |    96.49
   21 N                |   8 N                |  22 H                |   153.87
   21 N                |   8 N                |  23 H                |   153.87
   21 N                |   8 N                |  24 H                |   129.92
   22 H                |   8 N                |  23 H                |    51.59
   22 H                |   8 N                |  24 H                |    51.07
   23 H                |   8 N                |  24 H                |    51.07
    2 N                |   9 O                |   4 N                |    62.70
    9 O                |   6 C                |   2 N                |   121.91
    2 N                |   9 O                |  10 C                |    95.22
    9 O                |   2 N                |  13 C                |    93.54
    9 O                |   6 C                |   4 N                |   120.90
    9 O                |   4 N                |  10 C                |    88.82
    4 N                |   9 O                |  13 C                |    93.92
    9 O                |   6 C                |  10 C                |    88.52
    9 O                |   6 C                |  13 C                |    91.59
   10 C                |   9 O                |  13 C                |   126.44
    1 H                |  10 C                |   4 N                |   108.95
    1 H                |  10 C                |   5 C                |   121.74
    1 H                |  10 C                |   6 C                |    91.35
    1 H                |  10 C                |   9 O                |    75.72
    1 H                |  10 C                |  11 O                |   125.81
    1 H                |  10 C                |  14 H                |   108.39
    1 H                |  10 C                |  15 H                |   108.90
   10 C                |   4 N                |   5 C                |   118.12
   10 C                |   4 N                |   6 C                |   116.21
   10 C                |   4 N                |   9 O                |    88.82
   10 C                |   4 N                |  11 O                |    92.33
    4 N                |  10 C                |  14 H                |   108.95
    4 N                |  10 C                |  15 H                |   112.65
    5 C                |  10 C                |   6 C                |    61.73
    5 C                |  10 C                |   9 O                |    88.97
   10 C                |   5 C                |  11 O                |    92.94
    5 C                |  10 C                |  14 H                |   121.74
    5 C                |  10 C                |  15 H                |    82.34
   10 C                |   6 C                |   9 O                |    88.52
    6 C                |  10 C                |  11 O                |    87.79
    6 C                |  10 C                |  14 H                |    91.35
    6 C                |  10 C                |  15 H                |   144.06
    9 O                |  10 C                |  11 O                |   115.04
    9 O                |  10 C                |  14 H                |    75.72
    9 O                |  10 C                |  15 H                |   171.31
   11 O                |  10 C                |  14 H                |   125.81
   11 O                |  10 C                |  15 H                |    56.27
   14 H                |  10 C                |  15 H                |   108.90
    3 C                |  11 O                |   4 N                |    60.63
   11 O                |   5 C                |   3 C                |   122.72
    3 C                |  11 O                |  10 C                |    91.91
   11 O                |   5 C                |   4 N                |   124.51
   11 O                |   4 N                |  10 C                |    92.33
   11 O                |   5 C                |  10 C                |    92.94
   13 C                |   2 N                |   6 C                |   120.64
   13 C                |   2 N                |   7 C                |   120.07
   13 C                |   2 N                |   9 O                |    93.54
    2 N                |  13 C                |  16 H                |   111.91
    2 N                |  13 C                |  17 H                |   109.05
    2 N                |  13 C                |  18 H                |   109.05
   13 C                |   2 N                |  21 N                |    93.29
   13 C                |   7 C                |   6 C                |    61.49
   13 C                |   6 C                |   9 O                |    91.59
    6 C                |  13 C                |  16 H                |    82.88
    6 C                |  13 C                |  17 H                |   121.07
    6 C                |  13 C                |  18 H                |   121.07
    6 C                |  13 C                |  21 N                |    85.88
    7 C                |  13 C                |   9 O                |    84.30
    7 C                |  13 C                |  16 H                |   140.97
    7 C                |  13 C                |  17 H                |    93.13
    7 C                |  13 C                |  18 H                |    93.13
   13 C                |   7 C                |  21 N                |    95.33
    9 O                |  13 C                |  16 H                |    56.67
    9 O                |  13 C                |  17 H                |   125.21
    9 O                |  13 C                |  18 H                |   125.21
    9 O                |  13 C                |  21 N                |   112.08
   16 H                |  13 C                |  17 H                |   108.60
   16 H                |  13 C                |  18 H                |   108.60
   16 H                |  13 C                |  21 N                |   168.76
   17 H                |  13 C                |  18 H                |   109.59
   17 H                |  13 C                |  21 N                |    77.33
   18 H                |  13 C                |  21 N                |    77.34
   14 H                |  10 C                |   4 N                |   108.95
   16 H                |  13 C                |   2 N                |   111.91
   17 H                |  13 C                |   2 N                |   109.05
   18 H                |  13 C                |   2 N                |   109.05
   19 C                |   8 N                |   3 C                |   126.75
   19 C                |  20 C                |   3 C                |    64.04
    3 C                |  19 C                |  22 H                |    94.69
    3 C                |  19 C                |  23 H                |    94.69
    3 C                |  19 C                |  24 H                |   135.33
   19 C                |   8 N                |  20 C                |   126.20
    8 N                |  19 C                |  22 H                |   108.57
    8 N                |  19 C                |  23 H                |   108.57
    8 N                |  19 C                |  24 H                |   109.48
   20 C                |  19 C                |  22 H                |   119.55
   20 C                |  19 C                |  23 H                |   119.55
   20 C                |  19 C                |  24 H                |    83.32
   22 H                |  19 C                |  23 H                |   110.81
   22 H                |  19 C                |  24 H                |   109.69
   23 H                |  19 C                |  24 H                |   109.69
   20 C                |   7 C                |   3 C                |    74.88
   20 C                |   8 N                |   3 C                |   107.04
    3 C                |  20 C                |  12 H                |   159.33
    3 C                |  20 C                |  19 C                |    64.04
    3 C                |  20 C                |  21 N                |    75.23
    7 C                |  20 C                |   8 N                |    73.12
    7 C                |  20 C                |  12 H                |   163.96
    7 C                |  20 C                |  19 C                |   100.75
   20 C                |  21 N                |   7 C                |   104.40
    8 N                |  20 C                |  12 H                |   122.92
   20 C                |   8 N                |  19 C                |   126.20
    8 N                |  20 C                |  21 N                |   111.64
   12 H                |  20 C                |  19 C                |    95.29
   12 H                |  20 C                |  21 N                |   125.44
   19 C                |  20 C                |  21 N                |   139.27
   21 N                |   3 C                |   2 N                |    63.25
   21 N                |   7 C                |   2 N                |   126.20
    2 N                |  21 N                |   8 N                |    96.50
   21 N                |   2 N                |  13 C                |    93.29
    2 N                |  21 N                |  20 C                |   131.43
   21 N                |   7 C                |   3 C                |   111.96
   21 N                |   8 N                |   3 C                |    73.61
    3 C                |  21 N                |  13 C                |    90.90
   21 N                |  20 C                |   3 C                |    75.23
   21 N                |   7 C                |   8 N                |    74.38
   21 N                |   7 C                |  13 C                |    95.33
    7 C                |  21 N                |  20 C                |   104.40
    8 N                |  21 N                |  13 C                |   126.37
   21 N                |  20 C                |   8 N                |   111.64
   13 C                |  21 N                |  20 C                |   161.29
   22 H                |  19 C                |   8 N                |   108.57
   23 H                |  19 C                |   8 N                |   108.57
   24 H                |  19 C                |   8 N                |   109.48
 ------------------------------------------------------------------------------
                            number of included internuclear angles:        398
 ==============================================================================





 Summary of "ao basis" -> "" (cartesian)
 ------------------------------------------------------------------------------
       Tag                 Description            Shells   Functions and Types
 ---------------- ------------------------------  ------  ---------------------
 *                           sto-3g                   on all atoms 


                      Basis "ao basis" -> "ao basis" (cartesian)
                      -----
  H (Hydrogen)
  ------------
            Exponent  Coefficients 
       -------------- ---------------------------------------------------------
  1 S  3.42525091E+00  0.154329
  1 S  6.23913730E-01  0.535328
  1 S  1.68855400E-01  0.444635

  N (Nitrogen)
  ------------
            Exponent  Coefficients 
       -------------- ---------------------------------------------------------
  1 S  9.91061690E+01  0.154329
  1 S  1.80523120E+01  0.535328
  1 S  4.88566020E+00  0.444635

  2 S  3.78045590E+00 -0.099967
  2 S  8.78496600E-01  0.399513
  2 S  2.85714400E-01  0.700115

  3 P  3.78045590E+00  0.155916
  3 P  8.78496600E-01  0.607684
  3 P  2.85714400E-01  0.391957

  C (Carbon)
  ----------
            Exponent  Coefficients 
       -------------- ---------------------------------------------------------
  1 S  7.16168370E+01  0.154329
  1 S  1.30450960E+01  0.535328
  1 S  3.53051220E+00  0.444635

  2 S  2.94124940E+00 -0.099967
  2 S  6.83483100E-01  0.399513
  2 S  2.22289900E-01  0.700115

  3 P  2.94124940E+00  0.155916
  3 P  6.83483100E-01  0.607684
  3 P  2.22289900E-01  0.391957

  O (Oxygen)
  ----------
            Exponent  Coefficients 
       -------------- ---------------------------------------------------------
  1 S  1.30709320E+02  0.154329
  1 S  2.38088610E+01  0.535328
  1 S  6.44360830E+00  0.444635

  2 S  5.03315130E+00 -0.099967
  2 S  1.16959610E+00  0.399513
  2 S  3.80389000E-01  0.700115

  3 P  5.03315130E+00  0.155916
  3 P  1.16959610E+00  0.607684
  3 P  3.80389000E-01  0.391957



 Summary of "ao basis" -> "ao basis" (cartesian)
 ------------------------------------------------------------------------------
       Tag                 Description            Shells   Functions and Types
 ---------------- ------------------------------  ------  ---------------------
 H                           sto-3g                  1        1   1s
 N                           sto-3g                  3        5   2s1p
 C                           sto-3g                  3        5   2s1p
 O                           sto-3g                  3        5   2s1p


                                 NWChem SCF Module
                                 -----------------



  ao basis        = "ao basis"
  functions       =    80
  atoms           =    24
  closed shells   =    51
  open shells     =     0
  charge          =   0.00
  wavefunction    = RHF 
  input vectors   = atomic
  output vectors  = ./caffeine.movecs
  use symmetry    = F
  symmetry adapt  = F


 Summary of "ao basis" -> "ao basis" (cartesian)
 ------------------------------------------------------------------------------
       Tag                 Description            Shells   Functions and Types
 ---------------- ------------------------------  ------  ---------------------
 H                           sto-3g                  1        1   1s
 N                           sto-3g                  3        5   2s1p
 C                           sto-3g                  3        5   2s1p
 O                           sto-3g                  3        5   2s1p



 Forming initial guess at       1.2s


      Superposition of Atomic Density Guess
      -------------------------------------

 Sum of atomic energies:        -664.11220506

      Non-variational initial energy
      ------------------------------

 Total energy =    -730.898152
 1-e energy   =   -4333.998646
 2-e energy   =    1843.214919
 HOMO         =      -0.101520
 LUMO         =       0.363170


 Starting SCF solution at       2.5s



 ----------------------------------------------
         Quadratically convergent ROHF

 Convergence threshold     :          1.000E-08
 Maximum no. of iterations :          200
 Final Fock-matrix accuracy:          1.000E-09
 ----------------------------------------------


 Integral file          = ./caffeine.aoints.0
 Record size in doubles =  65536        No. of integs per rec  =  43688
 Max. records in memory =    166        Max. records in file   = 394975
 No. of bits per label  =      8        No. of bits per value  =     64


 #quartets = 8.882D+05 #integrals = 5.225D+06 #direct =  0.0% #cached =100.0%


              iter       energy          gnorm     gmax       time
             ----- ------------------- --------- --------- --------
                 1     -627.5669145573  1.14D+00  2.43D-01      8.0
                 2     -627.6262993775  2.25D-01  3.28D-02      8.1
                 3     -627.6287459004  7.33D-03  1.97D-03      8.3
                 4     -627.6287497847  8.98D-06  2.92D-06      8.6
                 5     -627.6287497847  3.16D-10  7.25D-11      9.0


       Final RHF  results 
       ------------------ 

         Total SCF energy =   -627.628749784706
      One-electron energy =  -4287.106806110532
      Two-electron energy =   1899.592480627044
 Nuclear repulsion energy =   1759.885575698782

        Time for solution =      6.6s


             Final eigenvalues
             -----------------

              1      
    1  -20.5621
    2  -20.5173
    3  -16.1475
    4  -15.9502
    5  -15.9307
    6  -15.8211
    7  -12.0132
    8  -11.9955
    9  -11.8937
   10  -11.8218
   11  -11.6977
   12  -11.6530
   13  -11.5722
   14  -11.5347
   15   -2.6007
   16   -2.4781
   17   -2.2061
   18   -2.1649
   19   -2.0892
   20   -1.9993
   21   -1.8688
   22   -1.8132
   23   -1.7166
   24   -1.5459
   25   -1.5157
   26   -1.4278
   27   -1.3919
   28   -1.3384
   29   -1.2921
   30   -1.1994
   31   -1.1580
   32   -1.1485
   33   -1.0956
   34   -1.0715
   35   -1.0293
   36   -0.9898
   37   -0.9202
   38   -0.9027
   39   -0.8503
   40   -0.8204
   41   -0.7871
   42   -0.7688
   43   -0.7543
   44   -0.6866
   45   -0.5862
   46   -0.5546
   47   -0.5545
   48   -0.4342
   49   -0.3960
   50   -0.3861
   51   -0.3073
   52    0.5089
   53    0.7869
   54    0.8509
   55    0.9862
   56    1.2281
   57    1.2406
   58    1.2806
   59    1.3392
   60    1.5071
   61    1.6057

                       ROHF Final Molecular Orbital Analysis
                       -------------------------------------

 Vector   26  Occ=2.000000D+00  E=-1.427787D+00
              MO Center= -8.2D-02, -7.0D-02,  2.3D-03, r^2= 1.4D+00
   Bfn.  Coefficient  Atom+Function         Bfn.  Coefficient  Atom+Function  
  ----- ------------  ---------------      ----- ------------  ---------------
    24     -0.475723   6 C  px               14      0.450963   4 N  px        
     9     -0.393356   3 C  px               10      0.382739   3 C  py        
    20     -0.344034   5 C  py               34      0.337582   8 N  px        
    74      0.294047  21 N  s                29      0.280778   7 C  px        
     5     -0.252475   2 N  py               17     -0.221955   5 C  s         

 Vector   27  Occ=2.000000D+00  E=-1.391922D+00
              MO Center= -3.0D-01, -1.6D-02,  1.6D-02, r^2= 1.7D+00
   Bfn.  Coefficient  Atom+Function         Bfn.  Coefficient  Atom+Function  
  ----- ------------  ---------------      ----- ------------  ---------------
     6      0.449385   2 N  pz               16     -0.316327   4 N  pz        
    21     -0.283862   5 C  pz               31      0.213825   7 C  pz        
    57      0.208868  13 C  pz               51     -0.171525  11 O  pz        
    46     -0.159981  10 C  pz        

 Vector   28  Occ=2.000000D+00  E=-1.338420D+00
              MO Center=  2.3D-01, -5.6D-01, -3.1D-02, r^2= 1.7D+00
   Bfn.  Coefficient  Atom+Function         Bfn.  Coefficient  Atom+Function  
  ----- ------------  ---------------      ----- ------------  ---------------
    24      0.534992   6 C  px               74      0.387261  21 N  s         
     4     -0.346541   2 N  px               71     -0.337283  20 C  py        
    30     -0.311250   7 C  py               75      0.290834  21 N  px        
    14     -0.283686   4 N  px                5      0.277688   2 N  py        
    34      0.269090   8 N  px               35      0.253560   8 N  py        

 Vector   29  Occ=2.000000D+00  E=-1.292064D+00
              MO Center= -3.6D-01, -3.3D-01,  9.5D-03, r^2= 1.7D+00
   Bfn.  Coefficient  Atom+Function         Bfn.  Coefficient  Atom+Function  
  ----- ------------  ---------------      ----- ------------  ---------------
     4      0.540356   2 N  px                5      0.402932   2 N  py        
    24     -0.376481   6 C  px               15      0.343046   4 N  py        
    35      0.331102   8 N  py               29     -0.282778   7 C  px        
    25     -0.260632   6 C  py               74      0.230933  21 N  s         
    38      0.226206   9 O  s                13     -0.222106   4 N  s         

 Vector   30  Occ=2.000000D+00  E=-1.199394D+00
              MO Center= -7.1D-02,  5.0D-01,  2.0D-02, r^2= 2.5D+00
   Bfn.  Coefficient  Atom+Function         Bfn.  Coefficient  Atom+Function  
  ----- ------------  ---------------      ----- ------------  ---------------
    15      0.457772   4 N  py               20     -0.439535   5 C  py        
    23     -0.300308   6 C  s                30      0.288871   7 C  py        
    19      0.274392   5 C  px               43      0.268940  10 C  s         
    25     -0.217794   6 C  py               42     -0.216645  10 C  s         
     9     -0.210662   3 C  px               64     -0.211333  19 C  s         

 Vector   31  Occ=2.000000D+00  E=-1.157971D+00
              MO Center=  3.2D-01,  2.2D-01, -1.1D-02, r^2= 2.3D+00
   Bfn.  Coefficient  Atom+Function         Bfn.  Coefficient  Atom+Function  
  ----- ------------  ---------------      ----- ------------  ---------------
    67     -0.390610  19 C  pz               21      0.360232   5 C  pz        
    26     -0.340512   6 C  pz               36     -0.339499   8 N  pz        
    31      0.293042   7 C  pz               41     -0.244734   9 O  pz        
    51      0.216684  11 O  pz               11      0.211624   3 C  pz        

 Vector   32  Occ=2.000000D+00  E=-1.148526D+00
              MO Center=  1.0D+00,  1.6D-01, -5.2D-02, r^2= 2.8D+00
   Bfn.  Coefficient  Atom+Function         Bfn.  Coefficient  Atom+Function  
  ----- ------------  ---------------      ----- ------------  ---------------
     9      0.442031   3 C  px               29     -0.333893   7 C  px        
    64     -0.299239  19 C  s                33      0.243343   8 N  s         
    34     -0.215796   8 N  px               23      0.206785   6 C  s         
    43     -0.204907  10 C  s                69      0.188830  20 C  s         
    76     -0.186087  21 N  py               65     -0.176328  19 C  px        

 Vector   33  Occ=2.000000D+00  E=-1.095634D+00
              MO Center=  1.3D-03, -7.1D-01, -2.3D-02, r^2= 2.8D+00
   Bfn.  Coefficient  Atom+Function         Bfn.  Coefficient  Atom+Function  
  ----- ------------  ---------------      ----- ------------  ---------------
    30      0.550125   7 C  py               54      0.394141  13 C  s         
    10     -0.375751   3 C  py               75      0.332931  21 N  px        
    25      0.249314   6 C  py               64      0.243186  19 C  s         
    34     -0.231362   8 N  px               76     -0.232319  21 N  py        
    20      0.207586   5 C  py               43     -0.180977  10 C  s         

 Vector   34  Occ=2.000000D+00  E=-1.071544D+00
              MO Center=  2.8D-01, -1.8D-02, -1.6D-02, r^2= 2.7D+00
   Bfn.  Coefficient  Atom+Function         Bfn.  Coefficient  Atom+Function  
  ----- ------------  ---------------      ----- ------------  ---------------
    67      0.352388  19 C  pz               77     -0.337181  21 N  pz        
    46     -0.319190  10 C  pz               21      0.302444   5 C  pz        
    72     -0.284181  20 C  pz               57      0.266794  13 C  pz        
     6      0.265369   2 N  pz               51      0.232939  11 O  pz        
    16     -0.211766   4 N  pz               31     -0.206893   7 C  pz        

 Vector   35  Occ=2.000000D+00  E=-1.029273D+00
              MO Center= -6.8D-01,  6.9D-01,  6.1D-02, r^2= 2.8D+00
   Bfn.  Coefficient  Atom+Function         Bfn.  Coefficient  Atom+Function  
  ----- ------------  ---------------      ----- ------------  ---------------
    15      0.563192   4 N  py               45     -0.410921  10 C  py        
    43     -0.298056  10 C  s                13      0.287910   4 N  s         
    14     -0.233054   4 N  px               38     -0.216742   9 O  s         
    56      0.200061  13 C  py               20     -0.198067   5 C  py        
    54     -0.188111  13 C  s                44      0.175678  10 C  px        

 Vector   36  Occ=2.000000D+00  E=-9.898151D-01
              MO Center= -6.3D-02, -3.1D-01, -6.7D-03, r^2= 3.4D+00
   Bfn.  Coefficient  Atom+Function         Bfn.  Coefficient  Atom+Function  
  ----- ------------  ---------------      ----- ------------  ---------------
    34      0.487452   8 N  px                5      0.378830   2 N  py        
    15      0.368001   4 N  py               35      0.285519   8 N  py        
     9     -0.282529   3 C  px               55     -0.276666  13 C  px        
    14     -0.247268   4 N  px               45     -0.239135  10 C  py        
    56     -0.239493  13 C  py               29      0.233861   7 C  px        

 Vector   37  Occ=2.000000D+00  E=-9.202306D-01
              MO Center= -8.7D-01,  2.2D-02,  5.0D-02, r^2= 2.4D+00
   Bfn.  Coefficient  Atom+Function         Bfn.  Coefficient  Atom+Function  
  ----- ------------  ---------------      ----- ------------  ---------------
    46      0.523408  10 C  pz               57      0.492104  13 C  pz        
    26     -0.465721   6 C  pz               41     -0.297330   9 O  pz        
    11     -0.240676   3 C  pz               67      0.176336  19 C  pz        

 Vector   38  Occ=2.000000D+00  E=-9.027069D-01
              MO Center=  3.0D-01, -2.9D-01, -2.7D-02, r^2= 2.4D+00
   Bfn.  Coefficient  Atom+Function         Bfn.  Coefficient  Atom+Function  
  ----- ------------  ---------------      ----- ------------  ---------------
    34      0.544472   8 N  px               30      0.504712   7 C  py        
     5     -0.466549   2 N  py                9     -0.432673   3 C  px        
    65     -0.385485  19 C  px               10     -0.365562   3 C  py        
    35      0.344649   8 N  py               56      0.306243  13 C  py        
     3      0.296125   2 N  s                75      0.275501  21 N  px        

 Vector   39  Occ=2.000000D+00  E=-8.502763D-01
              MO Center=  1.3D+00,  4.6D-01, -5.7D-02, r^2= 2.0D+00
   Bfn.  Coefficient  Atom+Function         Bfn.  Coefficient  Atom+Function  
  ----- ------------  ---------------      ----- ------------  ---------------
    66      0.562315  19 C  py               65     -0.450399  19 C  px        
    35     -0.440179   8 N  py               49      0.323693  11 O  px        
    80     -0.297518  24 H  s                44      0.282707  10 C  px        
     8     -0.260317   3 C  s                71      0.261431  20 C  py        
    20     -0.229641   5 C  py               69      0.212076  20 C  s         

 Vector   40  Occ=2.000000D+00  E=-8.203598D-01
              MO Center= -5.1D-01,  9.1D-01,  5.9D-02, r^2= 2.5D+00
   Bfn.  Coefficient  Atom+Function         Bfn.  Coefficient  Atom+Function  
  ----- ------------  ---------------      ----- ------------  ---------------
    44      0.639937  10 C  px               45      0.383739  10 C  py        
    14     -0.362546   4 N  px               70     -0.303643  20 C  px        
    59      0.297431  15 H  s                66     -0.279522  19 C  py        
    19      0.272193   5 C  px               39      0.248826   9 O  px        
    25      0.231439   6 C  py               20     -0.225059   5 C  py        

 Vector   41  Occ=2.000000D+00  E=-7.870988D-01
              MO Center=  7.1D-01, -6.8D-01, -6.2D-02, r^2= 1.6D+00
   Bfn.  Coefficient  Atom+Function         Bfn.  Coefficient  Atom+Function  
  ----- ------------  ---------------      ----- ------------  ---------------
    70      0.900561  20 C  px               29      0.577773   7 C  px        
    75     -0.545117  21 N  px               10     -0.475724   3 C  py        
    28      0.467351   7 C  s                71     -0.378839  20 C  py        
    35      0.318448   8 N  py                8      0.278488   3 C  s         
    14     -0.254822   4 N  px                4     -0.244236   2 N  px        

 Vector   42  Occ=2.000000D+00  E=-7.688008D-01
              MO Center= -1.0D+00, -1.0D+00,  2.5D-02, r^2= 1.4D+00
   Bfn.  Coefficient  Atom+Function         Bfn.  Coefficient  Atom+Function  
  ----- ------------  ---------------      ----- ------------  ---------------
    55      0.611036  13 C  px               56     -0.471959  13 C  py        
    29      0.423362   7 C  px                4     -0.401777   2 N  px        
    25     -0.355211   6 C  py               60     -0.322850  16 H  s         
     5      0.306476   2 N  py               39      0.241869   9 O  px        
    61      0.181522  17 H  s                62      0.181518  18 H  s         

 Vector   43  Occ=2.000000D+00  E=-7.543242D-01
              MO Center=  1.2D-01, -2.7D-01, -1.6D-02, r^2= 2.5D+00
   Bfn.  Coefficient  Atom+Function         Bfn.  Coefficient  Atom+Function  
  ----- ------------  ---------------      ----- ------------  ---------------
    72      0.484728  20 C  pz               31     -0.434686   7 C  pz        
    57      0.370550  13 C  pz               11     -0.340224   3 C  pz        
    51      0.335723  11 O  pz               41      0.286121   9 O  pz        
     6     -0.277474   2 N  pz               21      0.273056   5 C  pz        
    67     -0.271911  19 C  pz               77      0.241298  21 N  pz        

 Vector   44  Occ=2.000000D+00  E=-6.865970D-01
              MO Center=  8.0D-01, -1.8D-01, -5.1D-02, r^2= 2.1D+00
   Bfn.  Coefficient  Atom+Function         Bfn.  Coefficient  Atom+Function  
  ----- ------------  ---------------      ----- ------------  ---------------
    11      0.566035   3 C  pz               36      0.545898   8 N  pz        
    67     -0.517258  19 C  pz               77     -0.463682  21 N  pz        
    57      0.313817  13 C  pz               31     -0.252851   7 C  pz        
    78     -0.237036  22 H  s                79      0.237037  23 H  s         
    51     -0.231477  11 O  pz        

 Vector   45  Occ=2.000000D+00  E=-5.861830D-01
              MO Center=  3.0D-01,  1.1D+00,  1.8D-02, r^2= 2.1D+00
   Bfn.  Coefficient  Atom+Function         Bfn.  Coefficient  Atom+Function  
  ----- ------------  ---------------      ----- ------------  ---------------
    50      0.655355  11 O  py               48      0.491267  11 O  s         
    49      0.387292  11 O  px               18      0.383935   5 C  s         
    45     -0.342327  10 C  py               39     -0.334929   9 O  px        
    20     -0.320392   5 C  py               66     -0.308836  19 C  py        
    13     -0.284083   4 N  s                25     -0.198356   6 C  py        

 Vector   46  Occ=2.000000D+00  E=-5.546402D-01
              MO Center= -1.3D+00,  2.2D-01,  7.8D-02, r^2= 2.0D+00
   Bfn.  Coefficient  Atom+Function         Bfn.  Coefficient  Atom+Function  
  ----- ------------  ---------------      ----- ------------  ---------------
    39      0.705255   9 O  px               23     -0.525725   6 C  s         
    38     -0.513057   9 O  s                55     -0.403286  13 C  px        
    24     -0.397389   6 C  px               44     -0.392794  10 C  px        
    29     -0.363142   7 C  px               50      0.309152  11 O  py        
    18      0.299658   5 C  s                19     -0.279223   5 C  px        

 Vector   47  Occ=2.000000D+00  E=-5.544621D-01
              MO Center= -7.0D-01,  7.5D-01,  6.4D-02, r^2= 1.6D+00
   Bfn.  Coefficient  Atom+Function         Bfn.  Coefficient  Atom+Function  
  ----- ------------  ---------------      ----- ------------  ---------------
    16      0.914616   4 N  pz               41     -0.453097   9 O  pz        
    46     -0.455135  10 C  pz               51     -0.395401  11 O  pz        
     1      0.294374   1 H  s                58     -0.294516  14 H  s         
    72      0.184860  20 C  pz               11     -0.176560   3 C  pz        
    31     -0.173252   7 C  pz        

 Vector   48  Occ=2.000000D+00  E=-4.342215D-01
              MO Center=  1.4D-01, -9.1D-01, -3.7D-02, r^2= 2.1D+00
   Bfn.  Coefficient  Atom+Function         Bfn.  Coefficient  Atom+Function  
  ----- ------------  ---------------      ----- ------------  ---------------
    76      0.896668  21 N  py                3      0.689958   2 N  s         
    40      0.478896   9 O  py               52      0.367407  12 H  s         
    14      0.354534   4 N  px               33     -0.344006   8 N  s         
     8     -0.330212   3 C  s                35      0.256296   8 N  py        
    75      0.255256  21 N  px               10      0.246627   3 C  py        

 Vector   49  Occ=2.000000D+00  E=-3.959609D-01
              MO Center= -6.3D-01,  1.1D-01,  3.9D-02, r^2= 2.2D+00
   Bfn.  Coefficient  Atom+Function         Bfn.  Coefficient  Atom+Function  
  ----- ------------  ---------------      ----- ------------  ---------------
    40      0.840372   9 O  py               13     -0.744196   4 N  s         
    10      0.503378   3 C  py                4     -0.456989   2 N  px        
    49     -0.409005  11 O  px                5      0.379533   2 N  py        
     8      0.277178   3 C  s                50      0.265153  11 O  py        
     3      0.258889   2 N  s                15      0.258108   4 N  py        

 Vector   50  Occ=2.000000D+00  E=-3.860871D-01
              MO Center= -1.5D-01, -4.2D-01, -5.5D-03, r^2= 2.2D+00
   Bfn.  Coefficient  Atom+Function         Bfn.  Coefficient  Atom+Function  
  ----- ------------  ---------------      ----- ------------  ---------------
     6      0.902142   2 N  pz               11     -0.459394   3 C  pz        
    36      0.436914   8 N  pz               72      0.376264  20 C  pz        
    41     -0.367886   9 O  pz               57     -0.330932  13 C  pz        
    77     -0.311352  21 N  pz               51      0.302320  11 O  pz        
    61      0.276318  17 H  s                62     -0.276319  18 H  s         

 Vector   51  Occ=2.000000D+00  E=-3.073051D-01
              MO Center=  1.1D-01,  4.7D-01,  9.1D-03, r^2= 2.2D+00
   Bfn.  Coefficient  Atom+Function         Bfn.  Coefficient  Atom+Function  
  ----- ------------  ---------------      ----- ------------  ---------------
    49      0.775753  11 O  px               10     -0.588281   3 C  py        
    14      0.550175   4 N  px               40      0.485100   9 O  py        
    50     -0.461638  11 O  py               76     -0.449302  21 N  py        
    13      0.250494   4 N  s                 9      0.235661   3 C  px        
    45      0.221320  10 C  py               66     -0.214766  19 C  py        

 Vector   52  Occ=0.000000D+00  E= 5.088919D-01
              MO Center=  6.3D-01, -1.7D-02, -3.6D-02, r^2= 1.8D+00
   Bfn.  Coefficient  Atom+Function         Bfn.  Coefficient  Atom+Function  
  ----- ------------  ---------------      ----- ------------  ---------------
    36      0.955363   8 N  pz               72     -0.887168  20 C  pz        
    31      0.679553   7 C  pz               11     -0.656671   3 C  pz        
    21     -0.597082   5 C  pz               51      0.597201  11 O  pz        
    16      0.460574   4 N  pz                6     -0.314597   2 N  pz        
    78     -0.286754  22 H  s                79      0.286755  23 H  s         

 Vector   53  Occ=0.000000D+00  E= 7.869376D-01
              MO Center= -5.8D-01, -6.2D-02,  3.1D-02, r^2= 1.8D+00
   Bfn.  Coefficient  Atom+Function         Bfn.  Coefficient  Atom+Function  
  ----- ------------  ---------------      ----- ------------  ---------------
    26      1.233105   6 C  pz               41     -0.875145   9 O  pz        
    31     -0.747050   7 C  pz               11      0.671241   3 C  pz        
    77      0.652364  21 N  pz               21     -0.470692   5 C  pz        
    72     -0.384448  20 C  pz               16     -0.362244   4 N  pz        
    51      0.280455  11 O  pz                6     -0.270941   2 N  pz        

 Vector   54  Occ=0.000000D+00  E= 8.509253D-01
              MO Center=  4.3D-01, -3.9D-01, -3.7D-02, r^2= 1.8D+00
   Bfn.  Coefficient  Atom+Function         Bfn.  Coefficient  Atom+Function  
  ----- ------------  ---------------      ----- ------------  ---------------
    77      1.059341  21 N  pz               72     -0.877454  20 C  pz        
    21      0.841439   5 C  pz               31     -0.836304   7 C  pz        
     6      0.596026   2 N  pz               36      0.591692   8 N  pz        
    51     -0.554381  11 O  pz               26     -0.369729   6 C  pz        
    61      0.338477  17 H  s                62     -0.338489  18 H  s         

 Vector   55  Occ=0.000000D+00  E= 9.861800D-01
              MO Center=  1.6D-01,  1.6D-01, -3.6D-03, r^2= 2.4D+00
   Bfn.  Coefficient  Atom+Function         Bfn.  Coefficient  Atom+Function  
  ----- ------------  ---------------      ----- ------------  ---------------
    23      3.052418   6 C  s                18      1.956951   5 C  s         
     8      1.559276   3 C  s                13     -1.440898   4 N  s         
    28      1.441502   7 C  s                48     -1.405421  11 O  s         
    74     -1.378202  21 N  s                38     -1.223524   9 O  s         
    33     -1.128135   8 N  s                 3     -1.108783   2 N  s         

 Vector   56  Occ=0.000000D+00  E= 1.228110D+00
              MO Center= -6.1D-02,  2.2D-01,  1.1D-02, r^2= 2.8D+00
   Bfn.  Coefficient  Atom+Function         Bfn.  Coefficient  Atom+Function  
  ----- ------------  ---------------      ----- ------------  ---------------
    21      1.010927   5 C  pz               11     -0.937513   3 C  pz        
     1     -0.908999   1 H  s                58      0.909151  14 H  s         
    78     -0.912291  22 H  s                79      0.912123  23 H  s         
    67      0.846054  19 C  pz               61     -0.802022  17 H  s         
    62      0.802132  18 H  s                46     -0.762714  10 C  pz        

 Vector   57  Occ=0.000000D+00  E= 1.240575D+00
              MO Center=  1.4D-01,  1.1D-01, -4.5D-03, r^2= 3.4D+00
   Bfn.  Coefficient  Atom+Function         Bfn.  Coefficient  Atom+Function  
  ----- ------------  ---------------      ----- ------------  ---------------
    23      2.526648   6 C  s                 3     -1.730267   2 N  s         
    18     -1.637534   5 C  s                28      1.393731   7 C  s         
    66      1.165816  19 C  py               38     -0.974955   9 O  s         
    69      0.882558  20 C  s                78     -0.849128  22 H  s         
    79     -0.849314  23 H  s                56      0.830341  13 C  py        

 Vector   58  Occ=0.000000D+00  E= 1.280560D+00
              MO Center=  5.8D-01,  1.1D-01, -2.9D-02, r^2= 3.6D+00
   Bfn.  Coefficient  Atom+Function         Bfn.  Coefficient  Atom+Function  
  ----- ------------  ---------------      ----- ------------  ---------------
    28      1.752428   7 C  s                23     -1.650282   6 C  s         
    13      1.517001   4 N  s                65      1.295732  19 C  px        
    33      1.097697   8 N  s                52     -1.076841  12 H  s         
     8      1.018604   3 C  s                80     -0.915756  24 H  s         
    18     -0.894427   5 C  s                44     -0.861791  10 C  px        

 Vector   59  Occ=0.000000D+00  E= 1.339245D+00
              MO Center=  1.7D-01, -1.9D-01, -1.6D-02, r^2= 3.7D+00
   Bfn.  Coefficient  Atom+Function         Bfn.  Coefficient  Atom+Function  
  ----- ------------  ---------------      ----- ------------  ---------------
    33      2.301887   8 N  s                28     -1.356579   7 C  s         
    80     -1.091415  24 H  s                69     -1.074919  20 C  s         
    18     -1.013109   5 C  s                65      0.996113  19 C  px        
    56     -0.910551  13 C  py               23      0.895208   6 C  s         
    44      0.876668  10 C  px               61     -0.875248  17 H  s         

 Vector   60  Occ=0.000000D+00  E= 1.507119D+00
              MO Center=  2.0D-01, -4.2D-01, -2.5D-02, r^2= 3.4D+00
   Bfn.  Coefficient  Atom+Function         Bfn.  Coefficient  Atom+Function  
  ----- ------------  ---------------      ----- ------------  ---------------
    56     -1.505613  13 C  py               80      1.496836  24 H  s         
    23      1.462514   6 C  s                66      1.106528  19 C  py        
    61     -0.952184  17 H  s                62     -0.952178  18 H  s         
    18      0.903180   5 C  s                 3      0.821902   2 N  s         
     5     -0.801137   2 N  py                8      0.746005   3 C  s         

 Vector   61  Occ=0.000000D+00  E= 1.605730D+00
              MO Center=  1.3D-01,  8.6D-01,  2.1D-02, r^2= 3.0D+00
   Bfn.  Coefficient  Atom+Function         Bfn.  Coefficient  Atom+Function  
  ----- ------------  ---------------      ----- ------------  ---------------
    46      1.631299  10 C  pz                1      1.563812   1 H  s         
    58     -1.563864  14 H  s                67      1.463480  19 C  pz        
    78     -1.386373  22 H  s                79      1.386413  23 H  s         
    16     -0.609621   4 N  pz               36     -0.592525   8 N  pz        
    11      0.432040   3 C  pz               26      0.428659   6 C  pz        


 center of mass
 --------------
 x =  -0.00909108 y =  -0.00167590 z =   0.00045574

 moments of inertia (a.u.)
 ------------------
         482.859712991769          40.683982237272          40.124976204641
          40.683982237272         703.775877256656         -17.590902655181
          40.124976204641         -17.590902655181        1171.320046671687

  Mulliken analysis of the total density
  --------------------------------------

    Atom       Charge   Shell Charges
 -----------   ------   -------------------------------------------------------
    1 H    1     0.63   0.63
    2 N    7     8.52   2.00  1.37  5.16
    3 C    6     5.77   1.99 -0.23  4.01
    4 N    7     8.56   2.00  1.37  5.19
    5 C    6     4.96   1.99 -0.61  3.57
    6 C    6     4.39   1.99 -0.90  3.30
    7 C    6     5.19   1.99 -0.55  3.75
    8 N    7     8.66   2.00  1.52  5.14
    9 O    8     8.54   2.00  1.68  4.87
   10 C    6     6.53   2.00  0.48  4.04
   11 O    8     8.51   2.00  1.68  4.83
   12 H    1     0.76   0.76
   13 C    6     6.48   2.00  0.46  4.01
   14 H    1     0.63   0.63
   15 H    1     0.67   0.67
   16 H    1     0.67   0.67
   17 H    1     0.64   0.64
   18 H    1     0.64   0.64
   19 C    6     6.41   2.00  0.44  3.97
   20 C    6     5.04   2.00 -0.46  3.51
   21 N    7     7.84   2.00  1.35  4.49
   22 H    1     0.63   0.63
   23 H    1     0.63   0.63
   24 H    1     0.68   0.68

       Multipole analysis of the density wrt the origin
       ------------------------------------------------

     L   x y z        total         open         nuclear
     -   - - -        -----         ----         -------
     0   0 0 0     -0.000000      0.000000    102.000000

     1   1 0 0      0.640602      0.000000     -0.000000
     1   0 1 0      0.174996      0.000000     -0.000000
     1   0 0 1     -0.030262      0.000000     -0.000000

     2   2 0 0    -57.128377      0.000000    386.826037
     2   1 1 0     -1.045352      0.000000    -20.588948
     2   1 0 1      0.567831      0.000000    -22.112938
     2   0 2 0    -59.415867      0.000000    264.786842
     2   0 1 1     -0.364715      0.000000      9.616605
     2   0 0 2    -46.449539      0.000000      6.349742


 Parallel integral file used     120 records with       0 large values

 ------------------------------------
     Number of active orbitals     80
     Number of active alpha electrons     51
     Number of active beta electrons      51
 ------------------------------------
                   NWChem Extensible Many-Electron Theory Module
                   ---------------------------------------------

              ======================================================
                   This portion of the program was automatically
                  generated by a Tensor Contraction Engine (TCE).
                  The development of this portion of the program
                 and TCE was supported by US Department of Energy,
                Office of Science, Office of Basic Energy Science.
                      TCE is a product of Battelle and PNNL.
              Please cite: S.Hirata, J.Phys.Chem.A 107, 9887 (2003).
              ======================================================

            General Information
            -------------------
      Number of processors :     1
         Wavefunction type : Restricted Hartree-Fock
          No. of electrons :   102
           Alpha electrons :    51
            Beta electrons :    51
           No. of orbitals :   160
            Alpha orbitals :    80
             Beta orbitals :    80
        Alpha frozen cores :     0
         Beta frozen cores :     0
     Alpha frozen virtuals :     0
      Beta frozen virtuals :     0
         Spin multiplicity : singlet 
    Number of AO functions :    80
       Number of AO shells :    52
        Use of symmetry is : off
      Symmetry adaption is : off
         Schwarz screening : 0.10D-08

          Correlation Information
          -----------------------
          Calculation type : Coupled-cluster singles & doubles                           
   Perturbative correction : none                                                        
            Max iterations :      100
        Residual threshold : 0.10D-07
     T(0) DIIS level shift : 0.00D+00
     L(0) DIIS level shift : 0.00D+00
     T(1) DIIS level shift : 0.00D+00
     L(1) DIIS level shift : 0.00D+00
     T(R) DIIS level shift : 0.00D+00
     T(I) DIIS level shift : 0.00D+00
   CC-T/L Amplitude update :  5-th order DIIS
                I/O scheme : Global Array Library
        L-threshold :  0.10D-07
        EOM-threshold :  0.10D-07
 no EOMCCSD initial starts read in
 TCE RESTART OPTIONS
 READ_INT:   F
 WRITE_INT:  F
 READ_TA:    F
 WRITE_TA:   F
 READ_XA:    F
 WRITE_XA:   F
 READ_IN3:   F
 WRITE_IN3:  F
 SLICE:      F
 D4D5:       F

            Memory Information
            ------------------
          Available GA space size is    1048569600 doubles
          Available MA space size is     144171980 doubles

 Maximum block size supplied by input
 Maximum block size         1 doubles

 tile_dim =      1

 Block   Spin    Irrep     Size     Offset   Alpha
 -------------------------------------------------
   1    alpha     a      1 doubles       0       1
   2    alpha     a      1 doubles       1       2
   3    alpha     a      1 doubles       2       3
   4    alpha     a      1 doubles       3       4
   5    alpha     a      1 doubles       4       5
   6    alpha     a      1 doubles       5       6
   7    alpha     a      1 doubles       6       7
   8    alpha     a      1 doubles       7       8
   9    alpha     a      1 doubles       8       9
  10    alpha     a      1 doubles       9      10
  11    alpha     a      1 doubles      10      11
  12    alpha     a      1 doubles      11      12
  13    alpha     a      1 doubles      12      13
  14    alpha     a      1 doubles      13      14
  15    alpha     a      1 doubles      14      15
  16    alpha     a      1 doubles      15      16
  17    alpha     a      1 doubles      16      17
  18    alpha     a      1 doubles      17      18
  19    alpha     a      1 doubles      18      19
  20    alpha     a      1 doubles      19      20
  21    alpha     a      1 doubles      20      21
  22    alpha     a      1 doubles      21      22
  23    alpha     a      1 doubles      22      23
  24    alpha     a      1 doubles      23      24
  25    alpha     a      1 doubles      24      25
  26    alpha     a      1 doubles      25      26
  27    alpha     a      1 doubles      26      27
  28    alpha     a      1 doubles      27      28
  29    alpha     a      1 doubles      28      29
  30    alpha     a      1 doubles      29      30
  31    alpha     a      1 doubles      30      31
  32    alpha     a      1 doubles      31      32
  33    alpha     a      1 doubles      32      33
  34    alpha     a      1 doubles      33      34
  35    alpha     a      1 doubles      34      35
  36    alpha     a      1 doubles      35      36
  37    alpha     a      1 doubles      36      37
  38    alpha     a      1 doubles      37      38
  39    alpha     a      1 doubles      38      39
  40    alpha     a      1 doubles      39      40
  41    alpha     a      1 doubles      40      41
  42    alpha     a      1 doubles      41      42
  43    alpha     a      1 doubles      42      43
  44    alpha     a      1 doubles      43      44
  45    alpha     a      1 doubles      44      45
  46    alpha     a      1 doubles      45      46
  47    alpha     a      1 doubles      46      47
  48    alpha     a      1 doubles      47      48
  49    alpha     a      1 doubles      48      49
  50    alpha     a      1 doubles      49      50
  51    alpha     a      1 doubles      50      51
  52    beta      a      1 doubles      51       1
  53    beta      a      1 doubles      52       2
  54    beta      a      1 doubles      53       3
  55    beta      a      1 doubles      54       4
  56    beta      a      1 doubles      55       5
  57    beta      a      1 doubles      56       6
  58    beta      a      1 doubles      57       7
  59    beta      a      1 doubles      58       8
  60    beta      a      1 doubles      59       9
  61    beta      a      1 doubles      60      10
  62    beta      a      1 doubles      61      11
  63    beta      a      1 doubles      62      12
  64    beta      a      1 doubles      63      13
  65    beta      a      1 doubles      64      14
  66    beta      a      1 doubles      65      15
  67    beta      a      1 doubles      66      16
  68    beta      a      1 doubles      67      17
  69    beta      a      1 doubles      68      18
  70    beta      a      1 doubles      69      19
  71    beta      a      1 doubles      70      20
  72    beta      a      1 doubles      71      21
  73    beta      a      1 doubles      72      22
  74    beta      a      1 doubles      73      23
  75    beta      a      1 doubles      74      24
  76    beta      a      1 doubles      75      25
  77    beta      a      1 doubles      76      26
  78    beta      a      1 doubles      77      27
  79    beta      a      1 doubles      78      28
  80    beta      a      1 doubles      79      29
  81    beta      a      1 doubles      80      30
  82    beta      a      1 doubles      81      31
  83    beta      a      1 doubles      82      32
  84    beta      a      1 doubles      83      33
  85    beta      a      1 doubles      84      34
  86    beta      a      1 doubles      85      35
  87    beta      a      1 doubles      86      36
  88    beta      a      1 doubles      87      37
  89    beta      a      1 doubles      88      38
  90    beta      a      1 doubles      89      39
  91    beta      a      1 doubles      90      40
  92    beta      a      1 doubles      91      41
  93    beta      a      1 doubles      92      42
  94    beta      a      1 doubles      93      43
  95    beta      a      1 doubles      94      44
  96    beta      a      1 doubles      95      45
  97    beta      a      1 doubles      96      46
  98    beta      a      1 doubles      97      47
  99    beta      a      1 doubles      98      48
 100    beta      a      1 doubles      99      49
 101    beta      a      1 doubles     100      50
 102    beta      a      1 doubles     101      51
 103    alpha     a      1 doubles     102     103
 104    alpha     a      1 doubles     103     104
 105    alpha     a      1 doubles     104     105
 106    alpha     a      1 doubles     105     106
 107    alpha     a      1 doubles     106     107
 108    alpha     a      1 doubles     107     108
 109    alpha     a      1 doubles     108     109
 110    alpha     a      1 doubles     109     110
 111    alpha     a      1 doubles     110     111
 112    alpha     a      1 doubles     111     112
 113    alpha     a      1 doubles     112     113
 114    alpha     a      1 doubles     113     114
 115    alpha     a      1 doubles     114     115
 116    alpha     a      1 doubles     115     116
 117    alpha     a      1 doubles     116     117
 118    alpha     a      1 doubles     117     118
 119    alpha     a      1 doubles     118     119
 120    alpha     a      1 doubles     119     120
 121    alpha     a      1 doubles     120     121
 122    alpha     a      1 doubles     121     122
 123    alpha     a      1 doubles     122     123
 124    alpha     a      1 doubles     123     124
 125    alpha     a      1 doubles     124     125
 126    alpha     a      1 doubles     125     126
 127    alpha     a      1 doubles     126     127
 128    alpha     a      1 doubles     127     128
 129    alpha     a      1 doubles     128     129
 130    alpha     a      1 doubles     129     130
 131    alpha     a      1 doubles     130     131
 132    beta      a      1 doubles     131     103
 133    beta      a      1 doubles     132     104
 134    beta      a      1 doubles     133     105
 135    beta      a      1 doubles     134     106
 136    beta      a      1 doubles     135     107
 137    beta      a      1 doubles     136     108
 138    beta      a      1 doubles     137     109
 139    beta      a      1 doubles     138     110
 140    beta      a      1 doubles     139     111
 141    beta      a      1 doubles     140     112
 142    beta      a      1 doubles     141     113
 143    beta      a      1 doubles     142     114
 144    beta      a      1 doubles     143     115
 145    beta      a      1 doubles     144     116
 146    beta      a      1 doubles     145     117
 147    beta      a      1 doubles     146     118
 148    beta      a      1 doubles     147     119
 149    beta      a      1 doubles     148     120
 150    beta      a      1 doubles     149     121
 151    beta      a      1 doubles     150     122
 152    beta      a      1 doubles     151     123
 153    beta      a      1 doubles     152     124
 154    beta      a      1 doubles     153     125
 155    beta      a      1 doubles     154     126
 156    beta      a      1 doubles     155     127
 157    beta      a      1 doubles     156     128
 158    beta      a      1 doubles     157     129
 159    beta      a      1 doubles     158     130
 160    beta      a      1 doubles     159     131

 Global array virtual files algorithm will be used

 Parallel file system coherency ......... OK

 Integral file          = ./caffeine.aoints.0
 Record size in doubles =  65536        No. of integs per rec  =  43688
 Max. records in memory =    166        Max. records in file   = 394975
 No. of bits per label  =      8        No. of bits per value  =     64


 #quartets = 8.882D+05 #integrals = 5.225D+06 #direct =  0.0% #cached =100.0%


 Fock matrix recomputed
 1-e file size   =             6400
 1-e file name   = ./caffeine.f1
 Cpu & wall time / sec            5.5            5.6
 4-electron integrals stored in orbital form

 v2    file size   =          5250420
 4-index algorithm nr.  13 is used
 imaxsize =       30
 imaxsize ichop =        0

Program received signal SIGBUS: Access to an undefined portion of a memory object.

Backtrace for this error:
#0  0x7fd8d382e2da in ???
#1  0x7fd8d382d503 in ???
#2  0x7fd8d26ecf1f in ???
#3  0x7fd8d283cf2d in ???
#4  0x5601f20976c8 in ???
#5  0x5601f205eb9e in ???
#6  0x5601f0b109dd in ???
#7  0x5601f0b034fc in ???
#8  0x5601f0bddfa0 in ???
#9  0x5601f0ac4339 in tce_energy_
	at /opt/nwchem/src/tce/tce_energy.F:1517
#10  0x5601f0a6171f in tce_energy_fragment_
	at /opt/nwchem/src/tce/tce_energy_fragment.F:88
#11  0x5601ef7010c6 in task_energy_doit_
	at /opt/nwchem/src/task/task_energy.F:299
#12  0x5601ef702942 in task_energy_
	at /opt/nwchem/src/task/task_energy.F:122
#13  0x5601ef6f488c in task_
	at /opt/nwchem/src/task/task.F:371
#14  0x5601ef6ec6c2 in nwchem
	at /opt/nwchem/src/nwchem.F:318
#15  0x5601ef6ecd08 in main
	at /opt/nwchem/src/nwchem.F:402
--------------------------------------------------------------------------
mpirun noticed that process rank 0 with PID 0 on node 536cff56affc exited on signal 7 (Bus error).
--------------------------------------------------------------------------
