 &FCI NORB= 10,NELEC=16,MS2= 0,
  ORBSYM=1,1,1,1,1,1,1,1,1,1
  ISYM=1
 &END
    1.90140018465             1     1     1     1
  -0.243230942548E-01         1     1     2     1
    1.60824098339             2     1     2     1
   0.243267503402E-01         2     2     2     1
    1.90038609346             1     1     2     2
    1.90084389507             2     2     2     2
  -0.138770073466             1     1     3     1
   0.999852388780E-03         2     1     3     1
  -0.138714638259             2     2     3     1
   0.182467943378E-01         3     1     3     1
   0.875933681025E-05         3     2     3     1
  -0.237632019131E-02         3     3     3     1
   0.982575604677E-03         1     1     3     2
  -0.136483442908             2     1     3     2
  -0.314589988559E-02         2     2     3     2
   0.181982173876E-01         3     2     3     2
  -0.192860220492E-04         3     3     3     2
   0.483604868340             1     1     3     3
   0.108723687238E-03         2     1     3     3
   0.483582158340             2     2     3     3
   0.392548460578             3     3     3     3
  -0.323567153360E-02         1     1     4     1
   0.140703032829             2     1     4     1
   0.102085352247E-02         2     2     4     1
   0.282605896180E-03         3     1     4     1
  -0.187137907706E-01         3     2     4     1
  -0.188550775981E-04         3     3     4     1
   0.192548708054E-01         4     1     4     1
  -0.755962783437E-05         4     2     4     1
  -0.118241358943E-02         4     3     4     1
  -0.212528045676E-04         4     4     4     1
   0.142889243978             1     1     4     2
   0.103801314611E-02         2     1     4     2
   0.142893601371             2     2     4     2
  -0.187468753226E-01         3     1     4     2
  -0.284007147153E-03         3     2     4     2
   0.254147845343E-02         3     3     4     2
   0.192725925950E-01         4     2     4     2
  -0.925615904366E-05         4     3     4     2
   0.272909288325E-02         4     4     4     2
   0.378237296529E-02         1     1     4     3
  -0.250474064214             2     1     4     3
  -0.379455117864E-02         2     2     4     3
  -0.781629541626E-05         3     1     4     3
   0.112220104875E-02         3     2     4     3
  -0.837399672288E-04         3     3     4     3
   0.194926139822             4     3     4     3
   0.830092701667E-04         4     4     4     3
   0.490242260129             1     1     4     4
  -0.104747918123E-03         2     1     4     4
   0.490212291944             2     2     4     4
  -0.255984021456E-02         3     1     4     4
  -0.198224186765E-04         3     2     4     4
   0.395491262782             3     3     4     4
   0.398626278960             4     4     4     4
   0.852858852929E-08         1     1     5     1
  -0.371954159746E-06         2     1     5     1
  -0.271124839828E-08         2     2     5     1
   0.865218049918E-09         3     1     5     1
   0.359440571273E-07         3     2     5     1
  -0.156122559314E-08         3     3     5     1
  -0.239098612432E-07         4     1     5     1
   0.133821196546E-08         4     2     5     1
   0.364886316893E-07         4     3     5     1
  -0.115703778398E-07         4     4     5     1
   0.591217130857E-02         5     1     5     1
   0.488064578265E-05         5     2     5     1
   0.916899125718E-02         5     3     5     1
   0.584916770454E-04         5     4     5     1
  -0.923327257468E-08         5     5     5     1
  -0.340234737258E-06         1     1     5     2
  -0.504936909956E-08         2     1     5     2
  -0.340071189910E-06         2     2     5     2
   0.409357769879E-07         3     1     5     2
  -0.586829543936E-10         3     2     5     2
  -0.517713428734E-08         3     3     5     2
   0.324055745042E-08         4     1     5     2
  -0.292085364389E-07         4     2     5     2
   0.601171286640E-08         4     3     5     2
  -0.450782955893E-07         4     4     5     2
   0.583200253461E-02         5     2     5     2
   0.775133861226E-04         5     3     5     2
  -0.834717412151E-02         5     4     5     2
   0.565567559357E-07         5     5     5     2
  -0.476651035748E-08         1     1     5     3
   0.312702536861E-06         2     1     5     3
   0.468675464069E-08         2     2     5     3
  -0.197078876534E-08         3     1     5     3
  -0.367437499953E-09         3     2     5     3
   0.336429013601E-07         3     3     5     3
   0.203157555249E-07         4     1     5     3
   0.615859988703E-08         4     2     5     3
   0.120779796377E-07         4     3     5     3
  -0.439996142582E-07         4     4     5     3
   0.854393710701E-01         5     3     5     3
  -0.553198022199E-04         5     4     5     3
  -0.257187764957E-07         5     5     5     3
  -0.287143440160E-06         1     1     5     4
   0.119360952790E-06         2     1     5     4
  -0.283730410253E-06         2     2     5     4
   0.104324795804E-07         3     1     5     4
   0.183076029291E-09         3     2     5     4
  -0.449145291354E-07         3     3     5     4
  -0.331323616719E-08         4     1     5     4
  -0.286630676897E-07         4     2     5     4
  -0.100264362407E-06         4     3     5     4
   0.310246472845E-06         4     4     5     4
   0.743114395846E-01         5     4     5     4
  -0.725757587599E-06         5     5     5     4
   0.458024844508             1     1     5     5
   0.148023590047E-03         2     1     5     5
   0.458027258050             2     2     5     5
  -0.197451643010E-02         3     1     5     5
  -0.157920518246E-04         3     2     5     5
   0.377995116858             3     3     5     5
  -0.147593792425E-04         4     1     5     5
   0.195134884005E-02         4     2     5     5
  -0.121543971790E-03         4     3     5     5
   0.381006155640             4     4     5     5
   0.386887373916             5     5     5     5
  -0.723610706183E-07         1     1     6     1
  -0.446128811179E-07         2     1     6     1
  -0.734159899906E-07         2     2     6     1
   0.342407591370E-08         3     1     6     1
   0.667211799587E-08         3     2     6     1
  -0.490878913131E-08         3     3     6     1
  -0.436162245874E-08         4     1     6     1
   0.929180203147E-08         4     2     6     1
   0.181133511290E-08         4     3     6     1
  -0.453772634336E-07         4     4     6     1
  -0.903658024305E-04         5     1     6     1
   0.594813639575E-02         5     2     6     1
  -0.686845651330E-04         5     3     6     1
  -0.854392609893E-02         5     4     6     1
   0.604282869815E-07         5     5     6     1
   0.606956523036E-02         6     1     6     1
  -0.456920093578E-05         6     2     6     1
   0.852524828632E-02         6     3     6     1
   0.808832566275E-04         6     4     6     1
  -0.162258257257E-08         6     5     6     1
   0.129022329676E-07         6     6     6     1
  -0.451732525733E-07         1     1     6     2
  -0.113936007778E-06         2     1     6     2
  -0.486081561616E-07         2     2     6     2
   0.872642406283E-08         3     1     6     2
  -0.993415719419E-09         3     2     6     2
  -0.392897136339E-09         3     3     6     2
   0.143747299366E-07         4     1     6     2
  -0.585684397568E-08         4     2     6     2
   0.431650033208E-07         4     3     6     2
  -0.111041377491E-07         4     4     6     2
   0.603616914006E-02         5     1     6     2
   0.909581057911E-04         5     2     6     2
   0.934859888240E-02         5     3     6     2
  -0.635387832947E-04         5     4     6     2
  -0.896567162558E-08         5     5     6     2
   0.616489330623E-02         6     2     6     2
   0.609418305750E-04         6     3     6     2
  -0.970070084175E-02         6     4     6     2
   0.193217995595E-07         6     5     6     2
  -0.374343440252E-08         6     6     6     2
   0.243466398401E-06         1     1     6     3
   0.941595381196E-07         2     1     6     3
   0.246595180753E-06         2     2     6     3
  -0.124171978650E-07         3     1     6     3
  -0.109982659564E-09         3     2     6     3
  -0.124032446990E-07         3     3     6     3
   0.319700344849E-08         4     1     6     3
   0.300547141983E-07         4     2     6     3
  -0.771307217495E-07         4     3     6     3
  -0.376260750647E-06         4     4     6     3
  -0.607173199162E-04         5     1     6     3
   0.832099550916E-02         5     2     6     3
   0.336438791257E-04         5     3     6     3
  -0.758468575970E-01         5     4     6     3
   0.735728143577E-06         5     5     6     3
   0.775363966508E-01         6     3     6     3
   0.516889405147E-04         6     4     6     3
   0.656803642298E-07         6     5     6     3
   0.263423362717E-06         6     6     6     3
  -0.674918484420E-08         1     1     6     4
   0.763567037629E-06         2     1     6     4
   0.163888466159E-07         2     2     6     4
   0.390572450913E-08         3     1     6     4
  -0.928406524545E-08         3     2     6     4
  -0.412423971725E-07         3     3     6     4
  -0.108632628508E-07         4     1     6     4
  -0.803384065013E-08         4     2     6     4
  -0.936219484180E-06         4     3     6     4
   0.353445077598E-07         4     4     6     4
  -0.951147674105E-02         5     1     6     4
  -0.710254282243E-04         5     2     6     4
  -0.883742264473E-01         5     3     6     4
  -0.274222181040E-04         5     4     6     4
   0.380534020738E-07         5     5     6     4
   0.917611690720E-01         6     4     6     4
   0.952830472845E-07         6     5     6     4
  -0.417162570199E-07         6     6     6     4
  -0.319746431217E-02         1     1     6     5
   0.211827533968             2     1     6     5
   0.321038874323E-02         2     2     6     5
   0.252841197348E-05         3     1     6     5
  -0.359744932091E-03         3     2     6     5
   0.777378402757E-04         3     3     6     5
   0.309421708389E-03         4     1     6     5
   0.247216995503E-05         4     2     6     5
  -0.173347094567             4     3     6     5
  -0.701972743487E-04         4     4     6     5
   0.233371757765E-07         5     1     6     5
  -0.347755320598E-08         5     2     6     5
   0.740663600559E-06         5     3     6     5
   0.970041326434E-07         5     4     6     5
   0.122241677465E-03         5     5     6     5
   0.172041496202             6     5     6     5
  -0.112169511051E-03         6     6     6     5
   0.456571094543             1     1     6     6
  -0.140257720206E-03         2     1     6     6
   0.456560135187             2     2     6     6
  -0.163424909919E-02         3     1     6     6
  -0.126219444371E-04         3     2     6     6
   0.381700364929             3     3     6     6
  -0.127610881623E-04         4     1     6     6
   0.163779557720E-02         4     2     6     6
   0.115381475986E-03         4     3     6     6
   0.385001685966             4     4     6     6
  -0.409358018155E-08         5     1     6     6
   0.118761791011E-07         5     2     6     6
   0.425957935186E-07         5     3     6     6
  -0.275920051402E-06         5     4     6     6
   0.387973793309             5     5     6     6
   0.391000759108             6     6     6     6
  -0.666618862636E-01         1     1     7     1
   0.549593437769E-03         2     1     7     1
  -0.665943398808E-01         2     2     7     1
   0.607408247004E-02         3     1     7     1
   0.971842867849E-07         3     2     7     1
  -0.607733635898E-02         3     3     7     1
   0.100702693420E-03         4     1     7     1
  -0.650748775346E-02         4     2     7     1
  -0.723700035138E-04         4     3     7     1
  -0.628251613128E-02         4     4     7     1
   0.457016880780E-08         5     1     7     1
   0.250386537819E-07         5     2     7     1
   0.105621931014E-08         5     3     7     1
   0.800576820741E-08         5     4     7     1
  -0.713506671408E-03         5     5     7     1
   0.185005549166E-07         6     1     7     1
   0.402489477414E-08         6     2     7     1
   0.109256493294E-07         6     3     7     1
   0.705962082078E-08         6     4     7     1
   0.360862308425E-04         6     5     7     1
  -0.179941317917E-02         6     6     7     1
   0.119007637772E-01         7     1     7     1
   0.668184740144E-06         7     2     7     1
   0.614041513366E-02         7     3     7     1
   0.361189224320E-04         7     4     7     1
   0.120670251291E-07         7     5     7     1
   0.511550820464E-07         7     6     7     1
   0.118242424042E-01         7     7     7     1
   0.589138396471E-03         1     1     7     2
  -0.718146233287E-01         2     1     7     2
  -0.158289271269E-02         2     2     7     2
   0.901275069018E-07         3     1     7     2
   0.616281029835E-02         3     2     7     2
  -0.496774502458E-04         3     3     7     2
  -0.656913597595E-02         4     1     7     2
  -0.970466912238E-04         4     2     7     2
   0.951788894299E-02         4     3     7     2
  -0.429815497000E-04         4     4     7     2
   0.324978128109E-07         5     1     7     2
   0.433807877190E-08         5     2     7     2
  -0.396885397622E-07         5     3     7     2
  -0.192389381811E-08         5     4     7     2
  -0.846638440263E-05         5     5     7     2
   0.305859079995E-08         6     1     7     2
   0.250789757739E-07         6     2     7     2
  -0.588351879435E-08         6     3     7     2
   0.238616314223E-07         6     4     7     2
  -0.479039667185E-02         6     5     7     2
  -0.101408314778E-04         6     6     7     2
   0.116916218557E-01         7     2     7     2
   0.478265678332E-04         7     3     7     2
  -0.467597042015E-02         7     4     7     2
   0.675485297662E-07         7     5     7     2
   0.680988567196E-08         7     6     7     2
   0.893246858578E-04         7     7     7     2
   0.397178388580E-01         1     1     7     3
  -0.607798347977E-05         2     1     7     3
   0.397444683666E-01         2     2     7     3
  -0.359505367277E-02         3     1     7     3
  -0.284659411997E-04         3     2     7     3
  -0.455740121754E-02         3     3     7     3
  -0.264904068045E-04         4     1     7     3
   0.346378178332E-02         4     2     7     3
   0.882508071135E-05         4     3     7     3
  -0.484781774089E-02         4     4     7     3
   0.268601329848E-08         5     1     7     3
  -0.133399334776E-07         5     2     7     3
  -0.292441862051E-07         5     3     7     3
  -0.140122778059E-07         5     4     7     3
   0.111770180143E-01         5     5     7     3
  -0.152555808895E-08         6     1     7     3
  -0.142476838133E-08         6     2     7     3
   0.726289209643E-07         6     3     7     3
   0.552453525304E-07         6     4     7     3
  -0.826280495777E-05         6     5     7     3
   0.503366415989E-02         6     6     7     3
   0.298568686758E-01         7     3     7     3
   0.232169367439E-06         7     4     7     3
   0.418161178103E-07         7     5     7     3
   0.158026694621E-06         7     6     7     3
   0.651799259924E-01         7     7     7     3
   0.937382903839E-05         1     1     7     4
   0.111296073492E-04         2     1     7     4
   0.971177107366E-05         2     2     7     4
  -0.234003866728E-04         3     1     7     4
   0.308019782520E-02         3     2     7     4
   0.128813011432E-04         3     3     7     4
  -0.308081995180E-02         4     1     7     4
  -0.218321933013E-04         4     2     7     4
  -0.322768874379E-01         4     3     7     4
  -0.150926070120E-04         4     4     7     4
   0.384211800094E-07         5     1     7     4
   0.173847247260E-08         5     2     7     4
   0.153148184288E-06         5     3     7     4
  -0.235583477314E-07         5     4     7     4
   0.164533946896E-04         5     5     7     4
   0.457067240972E-08         6     1     7     4
   0.281968399955E-07         6     2     7     4
   0.540408364339E-07         6     3     7     4
   0.278351748706E-09         6     4     7     4
   0.211956782726E-01         6     5     7     4
  -0.136575594068E-04         6     6     7     4
   0.197025196474E-01         7     4     7     4
   0.241222562590E-07         7     5     7     4
  -0.219246325561E-07         7     6     7     4
   0.120460762568E-04         7     7     7     4
   0.665088975767E-07         1     1     7     5
  -0.303007694000E-06         2     1     7     5
   0.574020294187E-07         2     2     7     5
   0.571456054368E-08         3     1     7     5
  -0.337402495231E-07         3     2     7     5
  -0.576922539825E-08         3     3     7     5
   0.410273125898E-07         4     1     7     5
  -0.351935920980E-08         4     2     7     5
   0.266850578053E-06         4     3     7     5
  -0.192592937423E-07         4     4     7     5
   0.229963609003E-02         5     1     7     5
   0.184108223878E-04         5     2     7     5
   0.456664982551E-02         5     3     7     5
   0.212388496698E-05         5     4     7     5
  -0.573151284158E-08         5     5     7     5
  -0.179128761117E-04         6     1     7     5
   0.229424077866E-02         6     2     7     5
  -0.366380355150E-05         6     3     7     5
  -0.277901003008E-02         6     4     7     5
  -0.262425802065E-06         6     5     7     5
  -0.275103077925E-07         6     6     7     5
   0.166126734665E-01         7     5     7     5
  -0.254081317619E-05         7     6     7     5
   0.934816676772E-07         7     7     7     5
   0.337680264313E-06         1     1     7     6
  -0.727807580995E-07         2     1     7     6
   0.335730968087E-06         2     2     7     6
  -0.201174738476E-07         3     1     7     6
  -0.119084551217E-08         3     2     7     6
   0.958265790294E-07         3     3     7     6
   0.168063154376E-08         4     1     7     6
   0.235322370410E-07         4     2     7     6
   0.912404479918E-07         4     3     7     6
   0.112283147393E-06         4     4     7     6
  -0.102161522541E-04         5     1     7     6
   0.127456137881E-02         5     2     7     6
  -0.574144758720E-05         5     3     7     6
   0.556846724447E-02         5     4     7     6
   0.358623835036E-07         5     5     7     6
   0.121273797513E-02         6     1     7     6
   0.774934236765E-05         6     2     7     6
  -0.668030795736E-02         6     3     7     6
  -0.173638903253E-05         6     4     7     6
  -0.835561547370E-07         6     5     7     6
   0.392123826370E-07         6     6     7     6
   0.948694897655E-02         7     6     7     6
   0.608351746738E-06         7     7     7     6
   0.570384464043             1     1     7     7
  -0.603866572858E-05         2     1     7     7
   0.570434235567             2     2     7     7
  -0.870864901406E-02         3     1     7     7
  -0.669842850695E-04         3     2     7     7
   0.378254836006             3     3     7     7
  -0.671657029026E-04         4     1     7     7
   0.852942748618E-02         4     2     7     7
  -0.375275762462E-05         4     3     7     7
   0.378664014757             4     4     7     7
   0.761628923641E-08         5     1     7     7
   0.363016622031E-07         5     2     7     7
   0.382710412709E-07         5     3     7     7
  -0.474521417677E-06         5     4     7     7
   0.388166423444             5     5     7     7
   0.656100803671E-07         6     1     7     7
   0.289182961951E-09         6     2     7     7
   0.570406289559E-06         6     3     7     7
   0.228269653211E-08         6     4     7     7
   0.231249136453E-06         6     5     7     7
   0.376795580264             6     6     7     7
   0.574678402398             7     7     7     7
   0.372750036843E-13         1     1     8     1
  -0.431376318767E-13         2     1     8     1
   0.359736821370E-13         2     2     8     1
  -0.384098626619E-14         3     1     8     1
   0.482862395436E-14         3     2     8     1
   0.349964460915E-14         3     3     8     1
  -0.413477415073E-14         4     1     8     1
   0.454300885027E-14         4     2     8     1
   0.366711038745E-14         4     3     8     1
   0.268504058045E-14         4     4     8     1
   0.749391282786E-15         5     1     8     1
  -0.157262904944E-14         5     2     8     1
   0.197601981612E-14         5     3     8     1
   0.286761416146E-14         5     4     8     1
   0.115548536794E-14         5     5     8     1
  -0.189355323292E-14         6     1     8     1
   0.164999234741E-14         6     2     8     1
  -0.242504497655E-14         6     3     8     1
  -0.281456676114E-14         6     4     8     1
  -0.242318171578E-15         6     5     8     1
   0.873675103027E-15         6     6     8     1
  -0.132642420884E-14         7     1     8     1
   0.221313831061E-14         7     2     8     1
   0.208580792979E-14         7     3     8     1
   0.220940583627E-14         7     4     8     1
  -0.570680454279E-15         7     5     8     1
   0.108129310761E-14         7     6     8     1
   0.327369757339E-14         7     7     8     1
   0.774951698031E-02         8     1     8     1
   0.838298234535E-06         8     2     8     1
   0.775252737430E-02         8     3     8     1
   0.549939702872E-04         8     4     8     1
  -0.964134860151E-10         8     5     8     1
   0.928186696219E-08         8     6     8     1
   0.532342778291E-02         8     7     8     1
  -0.167765087325E-14         8     8     8     1
  -0.444926677512E-13         1     1     8     2
   0.342867147089E-13         2     1     8     2
  -0.434565034000E-13         2     2     8     2
   0.486910295219E-14         3     1     8     2
  -0.368405583061E-14         3     2     8     2
  -0.290557760527E-14         3     3     8     2
   0.453667537763E-14         4     1     8     2
  -0.403844825197E-14         4     2     8     2
  -0.157806418110E-14         4     3     8     2
  -0.521652670334E-14         4     4     8     2
  -0.167387757660E-14         5     1     8     2
   0.690347630482E-15         5     2     8     2
  -0.369594653102E-14         5     3     8     2
  -0.183632670215E-14         5     4     8     2
  -0.111965372231E-14         5     5     8     2
   0.162963278779E-14         6     1     8     2
  -0.193004691776E-14         6     2     8     2
   0.240039419891E-14         6     3     8     2
   0.359512813131E-14         6     4     8     2
  -0.231618613850E-15         6     5     8     2
  -0.958271438578E-15         6     6     8     2
   0.215418996536E-14         7     1     8     2
  -0.130501104538E-14         7     2     8     2
  -0.143619401561E-14         7     3     8     2
  -0.130348819928E-14         7     4     8     2
  -0.519499675620E-15         7     5     8     2
  -0.338069703476E-15         7     6     8     2
  -0.336165228309E-14         7     7     8     2
   0.765356870081E-02         8     2     8     2
   0.603443969240E-04         8     3     8     2
  -0.709134977114E-02         8     4     8     2
   0.162995053747E-07         8     5     8     2
   0.212611882281E-08         8     6     8     2
   0.399593162174E-04         8     7     8     2
   0.264857847942E-14         8     8     8     2
  -0.155627369533E-13         1     1     8     3
   0.564980496696E-13         2     1     8     3
  -0.138360802044E-13         2     2     8     3
   0.104155272356E-14         3     1     8     3
  -0.103736037560E-14         3     2     8     3
   0.203665538392E-14         3     3     8     3
   0.205196851263E-14         4     1     8     3
  -0.486030812744E-15         4     2     8     3
  -0.306088616204E-13         4     3     8     3
  -0.204545384469E-14         4     4     8     3
   0.135713704727E-14         5     1     8     3
  -0.171223297540E-14         5     2     8     3
   0.160365537070E-13         5     3     8     3
   0.197450408132E-13         5     4     8     3
  -0.581116185777E-14         5     5     8     3
  -0.197297398982E-14         6     1     8     3
   0.220835133440E-14         6     2     8     3
  -0.170075663317E-13         6     3     8     3
  -0.203149941638E-13         6     4     8     3
   0.413427803926E-13         6     5     8     3
  -0.851755655752E-14         6     6     8     3
   0.221514274522E-14         7     1     8     3
  -0.230513202422E-14         7     2     8     3
   0.111844316256E-13         7     3     8     3
   0.150948090393E-13         7     4     8     3
  -0.569204960591E-14         7     5     8     3
   0.111955507059E-13         7     6     8     3
   0.402862788063E-14         7     7     8     3
   0.364722080929E-01         8     3     8     3
  -0.136560707841E-06         8     4     8     3
  -0.344183688850E-09         8     5     8     3
   0.521139489328E-07         8     6     8     3
   0.218723140656E-01         8     7     8     3
  -0.949098821388E-14         8     8     8     3
  -0.992729932743E-14         1     1     8     4
   0.397337815049E-13         2     1     8     4
  -0.870605335648E-14         2     2     8     4
   0.550169489331E-15         3     1     8     4
  -0.126010860403E-14         3     2     8     4
  -0.691047982706E-14         3     3     8     4
   0.742867483332E-15         4     1     8     4
  -0.153406768180E-14         4     2     8     4
  -0.185010657716E-13         4     3     8     4
   0.281285307982E-14         4     4     8     4
   0.259800852450E-14         5     1     8     4
  -0.138287785904E-14         5     2     8     4
   0.276209693622E-13         5     3     8     4
   0.166332908423E-13         5     4     8     4
  -0.114833088660E-13         5     5     8     4
  -0.225329973931E-14         6     1     8     4
   0.271590744159E-14         6     2     8     4
  -0.190591398089E-13         6     3     8     4
  -0.272976921962E-13         6     4     8     4
   0.231522707764E-13         6     5     8     4
  -0.145284444443E-13         6     6     8     4
   0.250519177879E-14         7     1     8     4
  -0.214579796845E-14         7     2     8     4
   0.121326766703E-13         7     3     8     4
   0.721398745263E-14         7     4     8     4
  -0.123853931018E-14         7     5     8     4
   0.464184910917E-14         7     6     8     4
   0.123231268331E-13         7     7     8     4
   0.301779857022E-01         8     4     8     4
  -0.470410771195E-07         8     5     8     4
  -0.300747319743E-08         8     6     8     4
   0.484144254356E-05         8     7     8     4
  -0.907937291701E-14         8     8     8     4
   0.189247766865E-13         1     1     8     5
  -0.471661563023E-13         2     1     8     5
   0.174941172066E-13         2     2     8     5
   0.206221321548E-15         3     1     8     5
   0.182924635764E-13         3     3     8     5
  -0.196747858733E-15         4     2     8     5
   0.403465675686E-13         4     3     8     5
   0.193700773961E-13         4     4     8     5
  -0.173267221076E-14         5     1     8     5
   0.269832079217E-14         5     2     8     5
  -0.958936721489E-14         5     3     8     5
  -0.202818131927E-13         5     4     8     5
   0.162760400711E-13         5     5     8     5
   0.279783039368E-14         6     1     8     5
  -0.173995725105E-14         6     2     8     5
   0.226716255632E-13         6     3     8     5
   0.115728485842E-13         6     4     8     5
  -0.378722044013E-13         6     5     8     5
   0.208814457197E-13         6     6     8     5
  -0.107414475560E-14         7     1     8     5
   0.156828021402E-14         7     2     8     5
  -0.547071061956E-14         7     3     8     5
  -0.718184862726E-14         7     4     8     5
   0.195995664713E-15         7     5     8     5
  -0.179421487939E-14         7     6     8     5
   0.289103848474E-14         7     7     8     5
   0.114047872702E-01         8     5     8     5
  -0.177335574318E-06         8     6     8     5
   0.629537870840E-08         8     7     8     5
   0.508885064135E-14         8     8     8     5
  -0.320841064189E-13         1     1     8     6
   0.396406671133E-13         2     1     8     6
  -0.308733766370E-13         2     2     8     6
  -0.123984276895E-15         3     1     8     6
  -0.272986045700E-13         3     3     8     6
  -0.318794708695E-13         4     3     8     6
  -0.286155384032E-13         4     4     8     6
   0.308885724225E-14         5     1     8     6
  -0.178316824022E-14         5     2     8     6
   0.266956065288E-13         5     3     8     6
   0.119359835206E-13         5     4     8     6
  -0.269790625980E-13         5     5     8     6
  -0.188799571169E-14         6     1     8     6
   0.312550002985E-14         6     2     8     6
  -0.115055694102E-13         6     3     8     6
  -0.265647720102E-13         6     4     8     6
   0.308212201202E-13         6     5     8     6
  -0.290798842285E-13         6     6     8     6
   0.194163521365E-14         7     1     8     6
  -0.136114388409E-14         7     2     8     6
   0.918937955723E-14         7     3     8     6
   0.572375988990E-14         7     4     8     6
   0.575823200393E-15         7     5     8     6
   0.952898747262E-15         7     6     8     6