  &FCI NORB=  2,NELEC=  2,MS2=  0,
  ORBSYM= 1, 1,
  ISYM=0
 &END
    0.60678308648        1    1    1    1
    0.15821110448        2    1    2    1
    0.60486756354        2    2    1    1
    0.64496763778        2    2    2    2
    -1.2207498577        1    1    0    0
   -0.52751160572        2    2    0    0
     0.0000000000        1    0    0    0
     0.0000000000        2    0    0    0
    0.71510433906        0    0    0    0

