  &FCI NORB=  9,NELEC= 10,MS2=  0,
  ORBSYM= 1, 1, 1, 1, 1, 1, 1, 1, 1,
  ISYM=0
 &END
     4.7400019749        1    1    1    1
   -0.43178754325        2    1    1    1
    0.63915174574E-01    2    1    2    1
     1.0452023780        2    2    1    1
   -0.14376382085E-01    2    2    2    1
    0.75044870963        2    2    2    2
    0.18948044917E-01    3    1    3    1
    0.22799635801E-01    3    2    3    1
    0.15144621745        3    2    3    2
    0.86591287632        3    3    1    1
   -0.63327099573E-02    3    3    2    1
    0.67300727303        3    3    2    2
    0.65586240053        3    3    3    3
    0.13892414992        4    1    1    1
   -0.17081617489E-01    4    1    2    1
    0.14088793375E-01    4    1    2    2
    0.69798875427E-02    4    1    3    3
    0.29611074795E-01    4    1    4    1
   -0.93920501392E-01    4    2    1    1
    0.77017497905E-02    4    2    2    1
    0.13601143646E-01    4    2    2    2
    0.13895611119E-01    4    2    3    3
    0.22711271819E-01    4    2    4    1
    0.12676492938        4    2    4    2
   -0.29646418745E-02    4    3    3    1
    0.18512552735E-01    4    3    3    2
    0.40862547859E-01    4    3    4    3
    0.97694908824        4    4    1    1
   -0.12360062981E-01    4    4    2    1
    0.67772659272        4    4    2    2
    0.60020892430        4    4    3    3
   -0.92562949458E-02    4    4    4    1
   -0.70670802788E-01    4    4    4    2
    0.72115287356        4    4    4    4
    0.30203901200E-01    5    1    5    1
    0.30098560160E-01    5    2    5    1
    0.12951608802        5    2    5    2
    0.29819116047E-01    5    3    5    3
   -0.94610543192E-02    5    4    5    1
   -0.30784322823E-01    5    4    5    2
    0.42598603228E-01    5    4    5    4
     1.0391148433        5    5    1    1
   -0.11340594426E-01    5    5    2    1
    0.71354197515        5    5    2    2
    0.61768528962        5    5    3    3
    0.42644500770E-02    5    5    4    1
   -0.39369149663E-01    5    5    4    2
    0.66136462711        5    5    4    4
    0.76066713825        5    5    5    5
    0.14560454776        6    1    1    1
   -0.22959141146E-01    6    1    2    1
    0.18545423125E-02    6    1    2    2
    0.46796744925E-03    6    1    3    3
   -0.10537995626E-02    6    1    4    1
   -0.95753435431E-02    6    1    4    2
    0.74207272494E-02    6    1    4    4
    0.30209973121E-02    6    1    5    5
    0.10324013132E-01    6    1    6    1
   -0.20988392947        6    2    1    1
    0.45817145290E-02    6    2    2    1
   -0.10916344148        6    2    2    2
   -0.78004581421E-01    6    2    3    3
   -0.98971204673E-02    6    2    4    1
   -0.17740985585E-01    6    2    4    2
   -0.75929596615E-01    6    2    4    4
   -0.99126077378E-01    6    2    5    5
    0.93433534156E-03    6    2    6    1
    0.37230090831E-01    6    2    6    2
   -0.42744028569E-02    6    3    3    1
    0.15897247123E-02    6    3    3    2
    0.57272775544E-02    6    3    4    3
    0.19721061541E-01    6    3    6    3
   -0.11611179709        6    4    1    1
    0.74279404928E-03    6    4    2    1
   -0.62790033159E-01    6    4    2    2
   -0.39920585072E-01    6    4    3    3
   -0.37286617760E-02    6    4    4    1
    0.48164373710E-02    6    4    4    2
   -0.61595364181E-01    6    4    4    4
   -0.58480430575E-01    6    4    5    5
    0.84601948461E-03    6    4    6    1
    0.21212673614E-01    6    4    6    2
    0.21743311271E-01    6    4    6    4
   -0.78298701846E-02    6    5    5    1
   -0.22242242507E-01    6    5    5    2
   -0.98753914307E-03    6    5    5    4
    0.11539639833E-01    6    5    6    5
    0.41432513697        6    6    1    1
   -0.20105349424E-02    6    6    2    1
    0.36893806162        6    6    2    2
    0.35837790599        6    6    3    3
    0.67124995389E-02    6    6    4    1
    0.29864024671E-01    6    6    4    2
    0.34243263624        6    6    4    4
    0.34893628692        6    6    5    5
   -0.10860666686E-02    6    6    6    1
   -0.20302523498E-01    6    6    6    2
   -0.27149692451E-02    6    6    6    4
    0.30235831553        6    6    6    6
    0.10996407334E-01    7    1    3    1
    0.12898847020E-01    7    1    3    2
   -0.18811717957E-02    7    1    4    3
   -0.24363426183E-02    7    1    6    3
    0.63840003010E-02    7    1    7    1
    0.99861774222E-02    7    2    3    1
    0.40742533620E-01    7    2    3    2
   -0.81039851389E-02    7    2    4    3
   -0.10620706479E-01    7    2    6    3
    0.57066721343E-02    7    2    7    1
    0.19970206774E-01    7    2    7    2
    0.24881933161        7    3    1    1
   -0.42072255585E-02    7    3    2    1
    0.12720275303        7    3    2    2
    0.10687366584        7    3    3    3
    0.81648785602E-03    7    3    4    1
   -0.24299432565E-01    7    3    4    2
    0.11482066163        7    3    4    4
    0.12389882434        7    3    5    5
    0.13906023260E-02    7    3    6    1
   -0.32967236684E-01    7    3    6    2
   -0.23821750976E-01    7    3    6    4
    0.13471228665E-01    7    3    6    6
    0.52507435856E-01    7    3    7    3
   -0.39642380549E-02    7    4    3    1
   -0.25482214002E-01    7    4    3    2
    0.57979409352E-02    7    4    4    3
   -0.88158570212E-02    7    4    6    3
   -0.23136094852E-02    7    4    7    1
   -0.49516935133E-02    7    4    7    2
    0.13429148433E-01    7    4    7    4
    0.10830204353E-01    7    5    5    3
    0.61721474322E-02    7    5    7    5
   -0.48533721051E-02    7    6    3    1
   -0.50599732542E-01    7    6    3    2
   -0.18169012635E-01    7    6    4    3
   -0.24957111151E-01    7    6    6    3
   -0.26793779177E-02    7    6    7    1
    0.62343266339E-03    7    6    7    2
    0.19216274347E-01    7    6    7    4
    0.73731220282E-01    7    6    7    6
    0.40556427361        7    7    1    1
   -0.22128654928E-02    7    7    2    1
    0.34907631250        7    7    2    2
    0.35098155471        7    7    3    3
    0.17808636641E-02    7    7    4    1
    0.95774597961E-02    7    7    4    2
    0.33015042176        7    7    4    4
    0.33217695996        7    7    5    5
    0.37986371586E-03    7    7    6    1
   -0.14868465032E-01    7    7    6    2
    0.91504470444E-03    7    7    6    4
    0.29059242057        7    7    6    6
    0.14565526005E-01    7    7    7    3
    0.29707209271        7    7    7    7
    0.10414348730E-01    8    1    3    1
    0.11894841090E-01    8    1    3    2
   -0.24418618239E-02    8    1    4    3
   -0.21148386289E-02    8    1    6    3
    0.60529523455E-02    8    1    7    1
    0.53541163046E-02    8    1    7    2
   -0.24871258813E-02    8    1    7    4
   -0.24166639597E-02    8    1    7    6
    0.57706293117E-02    8    1    8    1
    0.74301048645E-02    8    2    3    1
    0.50863306599E-02    8    2    3    2
   -0.33834862500E-01    8    2    4    3
   -0.10517107287E-01    8    2    6    3
    0.43396341148E-02    8    2    7    1
    0.16377332929E-01    8    2    7    2
   -0.43594394018E-02    8    2    7    4
    0.93053979876E-02    8    2    7    6
    0.43510397374E-02    8    2    8    1
    0.38233868425E-01    8    2    8    2
    0.16764121992        8    3    1    1
   -0.49226177301E-02    8    3    2    1
    0.35237004364E-01    8    3    2    2
    0.12220303115E-01    8    3    3    3
   -0.49527925526E-02    8    3    4    1
   -0.71023399836E-01    8    3    4    2
    0.56045229346E-01    8    3    4    4
    0.66071727728E-01    8    3    5    5
    0.32939403869E-02    8    3    6    1
   -0.15545260438E-01    8    3    6    2
   -0.21149512926E-01    8    3    6    4
   -0.16919886043E-01    8    3    6    6
    0.42540226214E-01    8    3    7    3
   -0.64481847814E-02    8    3    7    7
    0.88956157127E-01    8    3    8    3
   -0.86620670398E-02    8    4    3    1
   -0.75451262551E-01    8    4    3    2
   -0.78175154475E-02    8    4    4    3
   -0.13170882337E-01    8    4    6    3
   -0.49483382608E-02    8    4    7    1
   -0.14125689694E-01    8    4    7    2
    0.22468344655E-01    8    4    7    4
    0.32274934577E-01    8    4    7    6
   -0.48919995635E-02    8    4    8    1
    0.64266276094E-02    8    4    8    2
    0.58048251424E-01    8    4    8    4
    0.11993940436E-01    8    5    5    3
    0.59621396975E-02    8    5    7    5
    0.90857641992E-02    8    5    8    5
   -0.17277226297E-02    8    6    3    1
   -0.10379882805E-01    8    6    3    2
   -0.98674472550E-02    8    6    4    3
    0.10032337715E-03    8    6    6    3
   -0.96866431553E-03    8    6    7    1
   -0.25248201788E-03    8    6    7    2
    0.16048458467E-02    8    6    7    4
   -0.23711461459E-02    8    6    7    6
   -0.83417690852E-03    8    6    8    1
    0.10914406754E-01    8    6    8    2
    0.88222171242E-02    8    6    8    4
    0.14456574144E-01    8    6    8    6
    0.16593393783        8    7    1    1
   -0.24742776161E-02    8    7    2    1
    0.10415420266        8    7    2    2
    0.99053946096E-01    8    7    3    3
   -0.58315302931E-03    8    7    4    1
   -0.85356143121E-02    8    7    4    2
    0.10090556620        8    7    4    4
    0.96205186898E-01    8    7    5    5
    0.11311409478E-02    8    7    6    1
   -0.14976205026E-01    8    7    6    2
   -0.74214710334E-02    8    7    6    4
    0.31636296802E-01    8    7    6    6
    0.25327440747E-01    8    7    7    3
    0.29069608008E-01    8    7    7    7
    0.40081689442E-02    8    7    8    3
    0.30800246317E-01    8    7    8    7
    0.55324873085        8    8    1    1
   -0.20371790860E-02    8    8    2    1
    0.50448589547        8    8    2    2
    0.51252412615        8    8    3    3
    0.14984384781E-02    8    8    4    1
    0.26017981066E-01    8    8    4    2
    0.47632424958        8    8    4    4
    0.45736085660        8    8    5    5
    0.37627570775E-03    8    8    6    1
   -0.29261711906E-01    8    8    6    2
   -0.92778659407E-02    8    8    6    4
    0.33258102439        8    8    6    6
    0.39984516794E-01    8    8    7    3
    0.32373863472        8    8    7    7
   -0.48689057319E-01    8    8    8    3
    0.75564570211E-01    8    8    8    7
    0.48718212309        8    8    8    8
    0.12794192339        9    1    1    1
   -0.20900819163E-01    9    1    2    1
   -0.50948773644E-03    9    1    2    2
   -0.12458610246E-03    9    1    3    3
   -0.68291408156E-02    9    1    4    1
   -0.14078292128E-01    9    1    4    2
    0.95513606317E-02    9    1    4    4
    0.19141005176E-02    9    1    5    5
    0.11077479285E-01    9    1    6    1
    0.28004149365E-02    9    1    6    2
    0.15654102699E-02    9    1    6    4
   -0.23222637589E-02    9    1    6    6
    0.15552201783E-02    9    1    7    3
    0.25184648242E-03    9    1    7    7
    0.44658719183E-02    9    1    8    3
    0.14397950701E-02    9    1    8    7
    0.43005515374E-03    9    1    8    8
    0.13023431352E-01    9    1    9    1
   -0.16798042546        9    2    1    1
    0.38582651953E-02    9    2    2    1
   -0.69112114979E-01    9    2    2    2
   -0.21916995452E-01    9    2    3    3
   -0.11767864566E-01    9    2    4    1
   -0.15212323697E-01    9    2    4    2
   -0.42724661129E-01    9    2    4    4
   -0.77914032716E-01    9    2    5    5
    0.18024983123E-02    9    2    6    1
    0.34806618469E-01    9    2    6    2
    0.21845150834E-01    9    2    6    4
   -0.10348256854E-01    9    2    6    6
   -0.24822400224E-01    9    2    7    3
   -0.27114461346E-03    9    2    7    7
   -0.30596479622E-01    9    2    8    3
   -0.22410871039E-02    9    2    8    7
    0.20148004635E-01    9    2    8    8
    0.42180343963E-02    9    2    9    1
    0.51635203311E-01    9    2    9    2
    0.74971214903E-03    9    3    3    1
    0.58694401634E-01    9    3    3    2
    0.24717869568E-01    9    3    4    3
    0.25001336112E-01    9    3    6    3
    0.37965997933E-03    9    3    7    1
   -0.12825853529E-02    9    3    7    2
   -0.17428116858E-01    9    3    7    4
   -0.37695444694E-01    9    3    7    6
    0.48347964728E-03    9    3    8    1
   -0.27591081150E-01    9    3    8    2
   -0.49141502060E-01    9    3    8    4
   -0.14043142695E-01    9    3    8    6
    0.72670365036E-01    9    3    9    3
   -0.16652104581        9    4    1    1
    0.29935037669E-02    9    4    2    1
   -0.64814609522E-01    9    4    2    2
   -0.27729223858E-01    9    4    3    3
   -0.30893936666E-02    9    4    4    1
    0.10413331567E-01    9    4    4    2
   -0.69269183070E-01    9    4    4    4
   -0.65100011923E-01    9    4    5    5
   -0.22914949011E-03    9    4    6    1
    0.26413315645E-01    9    4    6    2
    0.21721291764E-01    9    4    6    4
   -0.67149881600E-02    9    4    6    6
   -0.28329343412E-01    9    4    7    3
   -0.19054875350E-02    9    4    7    7
   -0.39023580012E-01    9    4    8    3
   -0.53606173361E-02    9    4    8    7
    0.14976879849E-01    9    4    8    8
    0.33399854895E-03    9    4    9    1
    0.37177513487E-01    9    4    9    2
    0.39175212224E-01    9    4    9    4
   -0.10913894327E-01    9    5    5    1
   -0.45209593128E-01    9    5    5    2
    0.23626509143E-02    9    5    5    4
    0.10809419527E-01    9    5    6    5
    0.21951654819E-01    9    5    9    5
    0.17424098705        9    6    1    1
   -0.24093494176E-02    9    6    2    1
    0.11392616527        9    6    2    2
    0.10350183161        9    6    3    3
    0.68404134301E-02    9    6    4    1
    0.20171475002E-01    9    6    4    2
    0.90544702180E-01    9    6    4    4
    0.96569808692E-01    9    6    5    5
   -0.97962218306E-03    9    6    6    1
   -0.23263329568E-01    9    6    6    2
   -0.12024574838E-01    9    6    6    4
    0.37407219091E-01    9    6    6    6
    0.17902393987E-01    9    6    7    3
    0.35050972539E-01    9    6    7    7
   -0.11650297121E-01    9    6    8    3
    0.25465344839E-01    9    6    8    7
    0.80324259695E-01    9    6    8    8
   -0.22603003291E-02    9    6    9    1
   -0.86382453028E-02    9    6    9    2
   -0.48997166176E-02    9    6    9    4
    0.39392174145E-01    9    6    9    6
   -0.19226540590E-02    9    7    3    1
   -0.16834747369E-01    9    7    3    2
   -0.11515391228E-01    9    7    4    3
   -0.36797552753E-02    9    7    6    3
   -0.10540459511E-02    9    7    7    1
   -0.31540117430E-03    9    7    7    2
    0.24773945866E-02    9    7    7    4
    0.52154671272E-02    9    7    7    6
   -0.83054153238E-03    9    7    8    1
    0.97422199205E-02    9    7    8    2
    0.11720158456E-01    9    7    8    4
    0.10924705983E-01    9    7    8    6
   -0.18016682708E-01    9    7    9    3
    0.13291021450E-01    9    7    9    7
   -0.44154879743E-02    9    8    3    1
   -0.81981094856E-01    9    8    3    2
   -0.45877323035E-01    9    8    4    3
   -0.30455849900E-01    9    8    6    3
   -0.23770488006E-02    9    8    7    1
    0.20605390266E-02    9    8    7    2
    0.20745007423E-01    9    8    7    4
    0.62928961977E-01    9    8    7    6
   -0.19805870184E-02    9    8    8    1
    0.43611020831E-01    9    8    8    2
    0.65113441170E-01    9    8    8    4
    0.21345601798E-01    9    8    8    6
   -0.89509284131E-01    9    8    9    3
    0.27193116958E-01    9    8    9    7
    0.13413575077        9    8    9    8
    0.57833790333        9    9    1    1
   -0.25755750376E-02    9    9    2    1
    0.51476175814        9    9    2    2
    0.51612775326        9    9    3    3
    0.11175347418E-01    9    9    4    1
    0.63368884046E-01    9    9    4    2
    0.45735029621        9    9    4    4
    0.46118091564        9    9    5    5
   -0.21407676725E-02    9    9    6    1
   -0.39275928750E-01    9    9    6    2
   -0.95043968446E-02    9    9    6    4
    0.34752275405        9    9    6    6
    0.30106529093E-01    9    9    7    3
    0.33110737388        9    9    7    7
   -0.68966979402E-01    9    9    8    3
    0.72158025701E-01    9    9    8    7
    0.48438534625        9    9    8    8
   -0.41300956940E-02    9    9    9    1
    0.10481817475E-01    9    9    9    2
    0.13881428959E-01    9    9    9    4
    0.95233828604E-01    9    9    9    6
    0.52166630727        9    9    9    9
    -33.005594824        1    1    0    0
    0.58184013034        2    1    0    0
    -7.8245650168        2    2    0    0
    -6.6171813434        3    3    0    0
   -0.18505807824        4    1    0    0
    0.26650429509        4    2    0    0
    -6.8766855802        4    4    0    0
    -7.0837148768        5    5    0    0
   -0.18238422934        6    1    0    0
    0.99625661008        6    2    0    0
    0.60214600322        6    4    0    0
    -3.3833273707        6    6    0    0
    -1.2679896365        7    3    0    0
    -3.1842134503        7    7    0    0
   -0.64253347384        8    3    0    0
    -1.0391046627        8    7    0    0
    -4.0324229443        8    8    0    0
   -0.15899999486        9    1    0    0
    0.69318170748        9    2    0    0
    0.72263800813        9    4    0    0
    -1.0541508722        9    6    0    0
    -4.0211605734        9    9    0    0
     0.0000000000        1    0    0    0
     0.0000000000        2    0    0    0
     0.0000000000        3    0    0    0
     0.0000000000        4    0    0    0
     0.0000000000        5    0    0    0
     0.0000000000        6    0    0    0
     0.0000000000        7    0    0    0
     0.0000000000        8    0    0    0
     0.0000000000        9    0    0    0
     9.0067748021        0    0    0    0
